* GENERATED BY CHARMM-GUI (HTTP://WWW.CHARMM-GUI.ORG) V3.7 ON JUL, 11. 2024. JOB
* INPUT GENERATION
*  DATE:     7/11/24      0:45:32      CREATED BY USER: apache
*
     55513  EXT
         1         1  DOPE      N               0.0441195450        0.5898501804       17.8374271543  MEMB      1               0.0000000000
         2         1  DOPE      HN1             0.1193418875        0.5101436408       18.8742974647  MEMB      1               0.0000000000
         3         1  DOPE      HN2             0.2031641873        1.5690898494       17.5391457904  MEMB      1               0.0000000000
         4         1  DOPE      HN3            -0.8986025518        0.2578343839       17.5719557335  MEMB      1               0.0000000000
         5         1  DOPE      C12             1.0314293938       -0.3758912254       17.2516808447  MEMB      1               0.0000000000
         6         1  DOPE      H12A            2.0343271201       -0.0670335368       17.6034334926  MEMB      1               0.0000000000
         7         1  DOPE      H12B            1.0016467723       -0.2915304468       16.1472629126  MEMB      1               0.0000000000
         8         1  DOPE      C11             0.6855614729       -1.8044545669       17.7182110357  MEMB      1               0.0000000000
         9         1  DOPE      H11A            1.4720110959       -2.5179607169       17.3797255670  MEMB      1               0.0000000000
        10         1  DOPE      H11B           -0.2623871626       -2.1215230616       17.2236350701  MEMB      1               0.0000000000
        11         1  DOPE      P               1.6917129588       -1.8967108976       20.1808134535  MEMB      1               0.0000000000
        12         1  DOPE      O13             1.9493118998       -3.2850488273       20.6161903934  MEMB      1               0.0000000000
        13         1  DOPE      O14             1.3224465759       -0.8794811266       21.1990398283  MEMB      1               0.0000000000
        14         1  DOPE      O11             2.8474222316       -1.4170011764       19.2279537876  MEMB      1               0.0000000000
        15         1  DOPE      O12             0.4929001168       -1.8744988932       19.1286691499  MEMB      1               0.0000000000
        16         1  DOPE      C1              4.1927887356       -1.1015919973       19.5172710557  MEMB      1               0.0000000000
        17         1  DOPE      HA              4.6474706072       -1.8041759843       20.2499350487  MEMB      1               0.0000000000
        18         1  DOPE      HB              4.2497624125       -0.0710035282       19.9366756839  MEMB      1               0.0000000000
        19         1  DOPE      C2              5.0300295465       -1.1199327034       18.2076498023  MEMB      1               0.0000000000
        20         1  DOPE      HS              6.0703176250       -0.8020992639       18.4669726028  MEMB      1               0.0000000000
        21         1  DOPE      O21             4.4525919907       -0.1840944718       17.3074546170  MEMB      1               0.0000000000
        22         1  DOPE      C21             5.0822083399        0.0902201274       16.1960722979  MEMB      1               0.0000000000
        23         1  DOPE      O22             6.1218068218       -0.3921626415       15.7918720112  MEMB      1               0.0000000000
        24         1  DOPE      C22             4.2264624480        1.1631573236       15.5429244598  MEMB      1               0.0000000000
        25         1  DOPE      H2R             3.4920458469        1.5596967029       16.2745838051  MEMB      1               0.0000000000
        26         1  DOPE      H2S             3.6764400161        0.6691354467       14.7179826488  MEMB      1               0.0000000000
        27         1  DOPE      C3              5.1202727259       -2.5329876566       17.5507782278  MEMB      1               0.0000000000
        28         1  DOPE      HX              5.3591232972       -3.1929867464       18.3954519758  MEMB      1               0.0000000000
        29         1  DOPE      HY              6.0079961887       -2.5058711761       16.8967297772  MEMB      1               0.0000000000
        30         1  DOPE      O31             3.9353109115       -3.0083182936       16.8453594836  MEMB      1               0.0000000000
        31         1  DOPE      C31             4.1218102396       -4.2379923433       16.3069907092  MEMB      1               0.0000000000
        32         1  DOPE      O32             5.1879700926       -4.8138678837       16.2433414570  MEMB      1               0.0000000000
        33         1  DOPE      C32             2.8229824397       -4.8932687008       15.8490936974  MEMB      1               0.0000000000
        34         1  DOPE      H2X             2.9659037802       -5.9926094247       15.9633881824  MEMB      1               0.0000000000
        35         1  DOPE      H2Y             1.9961248402       -4.5948629700       16.5203002072  MEMB      1               0.0000000000
        36         1  DOPE      C23             5.1255051820        2.3078138139       15.0794908673  MEMB      1               0.0000000000
        37         1  DOPE      H3R             5.9171325826        2.5128919014       15.8377460228  MEMB      1               0.0000000000
        38         1  DOPE      H3S             4.5311961595        3.2389608507       14.9382315874  MEMB      1               0.0000000000
        39         1  DOPE      C24             5.7386014052        1.9095734797       13.7500150863  MEMB      1               0.0000000000
        40         1  DOPE      H4R             6.1039378932        0.8684463216       13.8246668867  MEMB      1               0.0000000000
        41         1  DOPE      H4S             6.6403904192        2.4622960809       13.4595903981  MEMB      1               0.0000000000
        42         1  DOPE      C25             4.7234612233        2.1025233841       12.6415680027  MEMB      1               0.0000000000
        43         1  DOPE      H5R             4.6123722409        3.1938845861       12.4483593147  MEMB      1               0.0000000000
        44         1  DOPE      H5S             3.7403481973        1.7262037682       12.9706666747  MEMB      1               0.0000000000
        45         1  DOPE      C26             5.1780598155        1.3669405302       11.3949956549  MEMB      1               0.0000000000
        46         1  DOPE      H6R             6.2216189449        1.6977794637       11.2035198323  MEMB      1               0.0000000000
        47         1  DOPE      H6S             4.5828099585        1.6843285946       10.5303797093  MEMB      1               0.0000000000
        48         1  DOPE      C27             5.1869257256       -0.1644189301       11.5233802124  MEMB      1               0.0000000000
        49         1  DOPE      H7R             5.5507883635       -0.4879819750       12.5205532861  MEMB      1               0.0000000000
        50         1  DOPE      H7S             5.8951383526       -0.5586130966       10.7801525924  MEMB      1               0.0000000000
        51         1  DOPE      C28             3.8920556855       -0.8719374317       11.1589411903  MEMB      1               0.0000000000
        52         1  DOPE      H8R             3.6540435603       -0.6815891419       10.0886268062  MEMB      1               0.0000000000
        53         1  DOPE      H8S             3.0960932043       -0.4227895595       11.7811804460  MEMB      1               0.0000000000
        54         1  DOPE      C29             4.0922455363       -2.3298430397       11.4904097337  MEMB      1               0.0000000000
        55         1  DOPE      H9R             4.4473092985       -2.4740309472       12.5244460450  MEMB      1               0.0000000000
        56         1  DOPE      C210            3.9512062045       -3.4219525120       10.7104878827  MEMB      1               0.0000000000
        57         1  DOPE      H10R            4.0999517528       -4.4077453563       11.1710080307  MEMB      1               0.0000000000
        58         1  DOPE      C211            3.5420588303       -3.4924499664        9.2696136981  MEMB      1               0.0000000000
        59         1  DOPE      H11R            3.4515608519       -2.4462160976        8.8723651878  MEMB      1               0.0000000000
        60         1  DOPE      H11S            2.5060680174       -3.8703904662        9.2352057732  MEMB      1               0.0000000000
        61         1  DOPE      C212            4.3672166072       -4.2082151138        8.1428349272  MEMB      1               0.0000000000
        62         1  DOPE      H12R            4.8734902556       -3.2885267614        7.8659833610  MEMB      1               0.0000000000
        63         1  DOPE      H12S            3.6527922165       -4.5117543712        7.3654974755  MEMB      1               0.0000000000
        64         1  DOPE      C213            5.4240127296       -5.3570825880        8.2493409814  MEMB      1               0.0000000000
        65         1  DOPE      H13R            4.8902371123       -6.2964462585        8.4896876632  MEMB      1               0.0000000000
        66         1  DOPE      H13S            5.9628233195       -5.1125808748        9.1560647321  MEMB      1               0.0000000000
        67         1  DOPE      C214            6.4740414925       -5.9698072558        7.1679297218  MEMB      1               0.0000000000
        68         1  DOPE      H14R            6.2893896522       -7.0333933873        7.3129178896  MEMB      1               0.0000000000
        69         1  DOPE      H14S            7.3103895978       -5.9140520990        7.8974380490  MEMB      1               0.0000000000
        70         1  DOPE      C215            7.5271622581       -5.6128831300        5.9195382988  MEMB      1               0.0000000000
        71         1  DOPE      H15R            7.7486050507       -6.6336221203        5.8115181816  MEMB      1               0.0000000000
        72         1  DOPE      H15S            8.4781732875       -5.3120911008        6.3972051278  MEMB      1               0.0000000000
        73         1  DOPE      C216            7.5068725669       -4.8873761454        4.4106833027  MEMB      1               0.0000000000
        74         1  DOPE      H16R            8.0630414148       -3.9422594199        4.4154786382  MEMB      1               0.0000000000
        75         1  DOPE      H16S            6.5537462160       -4.6054040946        4.0592781503  MEMB      1               0.0000000000
        76         1  DOPE      C217            7.7305082468       -5.3531411198        2.9138553641  MEMB      1               0.0000000000
        77         1  DOPE      H17R            7.9582700916       -6.4067161474        2.8772052955  MEMB      1               0.0000000000
        78         1  DOPE      H17S            8.6000122457       -4.7779648133        2.5163920622  MEMB      1               0.0000000000
        79         1  DOPE      C218            6.5717528280       -5.1197498138        1.8810714757  MEMB      1               0.0000000000
        80         1  DOPE      H18R            6.2536707620       -4.0620445895        1.8211104824  MEMB      1               0.0000000000
        81         1  DOPE      H18S            5.6492708847       -5.6814258059        2.1086853929  MEMB      1               0.0000000000
        82         1  DOPE      H18T            6.8672375160       -5.4668730098        0.8687484493  MEMB      1               0.0000000000
        83         1  DOPE      C33             2.4857333072       -4.5864498191       14.3773954694  MEMB      1               0.0000000000
        84         1  DOPE      H3X             1.6085001490       -5.2134059354       14.0888803529  MEMB      1               0.0000000000
        85         1  DOPE      H3Y             3.3096489479       -4.8597963803       13.6803729702  MEMB      1               0.0000000000
        86         1  DOPE      C34             2.1065507121       -3.1142381956       14.2302181149  MEMB      1               0.0000000000
        87         1  DOPE      H4X             1.6821029673       -2.7519479042       15.1905570051  MEMB      1               0.0000000000
        88         1  DOPE      H4Y             3.0144544661       -2.5016005272       14.0439295763  MEMB      1               0.0000000000
        89         1  DOPE      C35             1.0656170507       -2.8654656144       13.1421540271  MEMB      1               0.0000000000
        90         1  DOPE      H5X             0.1325473371       -3.4296116198       13.3667565845  MEMB      1               0.0000000000
        91         1  DOPE      H5Y             1.4645035987       -3.2535238942       12.1780793981  MEMB      1               0.0000000000
        92         1  DOPE      C36             0.7576191208       -1.3721291854       13.0141058619  MEMB      1               0.0000000000
        93         1  DOPE      H6X             1.5936474959       -0.7908953605       13.4640233015  MEMB      1               0.0000000000
        94         1  DOPE      H6Y            -0.1675821541       -1.1344955080       13.5848645671  MEMB      1               0.0000000000
        95         1  DOPE      C37             0.5640172269       -0.9320447216       11.5577624189  MEMB      1               0.0000000000
        96         1  DOPE      H7X             1.4097894652       -1.2433870897       10.9165518842  MEMB      1               0.0000000000
        97         1  DOPE      H7Y            -0.3217080349       -1.4746164805       11.1581491533  MEMB      1               0.0000000000
        98         1  DOPE      C38             0.2975797388        0.5828629690       11.4259282080  MEMB      1               0.0000000000
        99         1  DOPE      H8X            -0.3783653168        0.8293041578       12.2666226708  MEMB      1               0.0000000000
       100         1  DOPE      H8Y            -0.2795029271        0.6949705170       10.4871569910  MEMB      1               0.0000000000
       101         1  DOPE      C39             1.4187672906        1.5865447593       11.4650437048  MEMB      1               0.0000000000
       102         1  DOPE      H9X             1.8928772081        1.6886917540       12.4460793775  MEMB      1               0.0000000000
       103         1  DOPE      C310            1.8357969123        2.3649169721       10.4516472318  MEMB      1               0.0000000000
       104         1  DOPE      H10X            2.7093493292        3.0254610015       10.5850717397  MEMB      1               0.0000000000
       105         1  DOPE      C311            1.2494672306        2.3689301820        9.0706820169  MEMB      1               0.0000000000
       106         1  DOPE      H11X            0.1701966225        2.1182214958        9.0459661166  MEMB      1               0.0000000000
       107         1  DOPE      H11Y            1.3816863075        3.3631476689        8.6068235367  MEMB      1               0.0000000000
       108         1  DOPE      C312            1.9991353621        1.4133424114        8.1649471387  MEMB      1               0.0000000000
       109         1  DOPE      H12X            1.4248536327        1.3358713900        7.2107644492  MEMB      1               0.0000000000
       110         1  DOPE      H12Y            2.0771328616        0.3898430649        8.5937861452  MEMB      1               0.0000000000
       111         1  DOPE      C313            3.3759822130        1.9840387198        7.8560361488  MEMB      1               0.0000000000
       112         1  DOPE      H13X            3.2962595412        3.0674567496        7.6069179752  MEMB      1               0.0000000000
       113         1  DOPE      H13Y            4.0751766054        1.8929003442        8.7029252117  MEMB      1               0.0000000000
       114         1  DOPE      C314            3.9347302551        1.2826825860        6.6566818321  MEMB      1               0.0000000000
       115         1  DOPE      H14X            3.1047052613        1.2433335765        5.9088667482  MEMB      1               0.0000000000
       116         1  DOPE      H14Y            4.1433507005        0.2077753435        6.8516999775  MEMB      1               0.0000000000
       117         1  DOPE      C315            5.0184908123        2.1132227676        5.9308641205  MEMB      1               0.0000000000
       118         1  DOPE      H15X            4.4358603241        2.9212631280        5.4887583160  MEMB      1               0.0000000000
       119         1  DOPE      H15Y            5.0826526789        1.4769006570        5.0881785084  MEMB      1               0.0000000000
       120         1  DOPE      C316            6.3745302418        2.6953465249        6.5763443288  MEMB      1               0.0000000000
       121         1  DOPE      H16X            6.2261355594        2.7325712946        7.6498765895  MEMB      1               0.0000000000
       122         1  DOPE      H16Y            6.2255208947        3.7090122729        6.2528110144  MEMB      1               0.0000000000
       123         1  DOPE      C317            7.9358326535        2.9331974844        6.1454216357  MEMB      1               0.0000000000
       124         1  DOPE      H17X            7.9506579551        3.7487343342        5.3896173007  MEMB      1               0.0000000000
       125         1  DOPE      H17Y            8.4250633840        3.3548141429        7.0520734067  MEMB      1               0.0000000000
       126         1  DOPE      C318            9.0344918185        2.0072720660        5.5760750229  MEMB      1               0.0000000000
       127         1  DOPE      H18X            9.8412499913        2.7233118695        5.2659179994  MEMB      1               0.0000000000
       128         1  DOPE      H18Y            9.4192640510        1.2299057291        6.2838142858  MEMB      1               0.0000000000
       129         1  DOPE      H18Z            8.7144988070        1.4635438707        4.6802664631  MEMB      1               0.0000000000
       130         2  23SM      N              -6.0435639921        4.9545991109       27.2420340710  MEMB      2               0.0000000000
       131         2  23SM      C15            -7.1774087989        4.6965747625       26.2860470545  MEMB      2               0.0000000000
       132         2  23SM      H15A           -8.1435608383        4.7378748697       26.7611464152  MEMB      2               0.0000000000
       133         2  23SM      H15B           -7.0207329057        3.7202767811       25.8226748811  MEMB      2               0.0000000000
       134         2  23SM      H15C           -7.1456700966        5.4193770770       25.4820172042  MEMB      2               0.0000000000
       135         2  23SM      C14            -6.3818422940        6.1041101741       28.1269401717  MEMB      2               0.0000000000
       136         2  23SM      H14A           -6.4827983110        7.0264520566       27.5599641589  MEMB      2               0.0000000000
       137         2  23SM      H14B           -5.6348870371        6.2359960549       28.9090150842  MEMB      2               0.0000000000
       138         2  23SM      H14C           -7.3408610311        5.9246693108       28.6018919495  MEMB      2               0.0000000000
       139         2  23SM      C13            -5.8098514144        3.7295949872       28.0740857692  MEMB      2               0.0000000000
       140         2  23SM      H13A           -6.6628661149        3.4272083688       28.6648623679  MEMB      2               0.0000000000
       141         2  23SM      H13B           -4.9490760177        3.8286451043       28.7283711652  MEMB      2               0.0000000000
       142         2  23SM      H13C           -5.5929419392        2.8962491724       27.4066105894  MEMB      2               0.0000000000
       143         2  23SM      C12            -4.7911154803        5.2862954735       26.4359734410  MEMB      2               0.0000000000
       144         2  23SM      H12A           -3.9559622874        5.2618860242       27.1268653198  MEMB      2               0.0000000000
       145         2  23SM      H12B           -4.8617353811        6.2987406495       26.0504293944  MEMB      2               0.0000000000
       146         2  23SM      C11            -4.4190488385        4.3332240586       25.2765207863  MEMB      2               0.0000000000
       147         2  23SM      H11A           -3.5300849223        4.7315176332       24.7360568878  MEMB      2               0.0000000000
       148         2  23SM      H11B           -5.2491511997        4.2838169906       24.5319990908  MEMB      2               0.0000000000
       149         2  23SM      P              -4.5525074911        1.6999758254       25.2159247930  MEMB      2               0.0000000000
       150         2  23SM      O13            -3.6327359550        0.6052972702       25.6115198265  MEMB      2               0.0000000000
       151         2  23SM      O14            -5.9824602686        1.5392014455       25.5660329421  MEMB      2               0.0000000000
       152         2  23SM      O11            -4.3661099339        2.0435011047       23.6994925352  MEMB      2               0.0000000000
       153         2  23SM      O12            -4.0855737407        3.0693257417       25.8294285410  MEMB      2               0.0000000000
       154         2  23SM      C1S            -5.3554472685        1.9784280573       22.6956454675  MEMB      2               0.0000000000
       155         2  23SM      H1S            -5.8916894733        2.9519669739       22.6077843809  MEMB      2               0.0000000000
       156         2  23SM      H1T            -6.1121041108        1.1956464667       22.9290641160  MEMB      2               0.0000000000
       157         2  23SM      NF             -3.6233548442        2.6185079305       21.0421889301  MEMB      2               0.0000000000
       158         2  23SM      HNF            -3.9026977701        3.5563288630       20.8763256964  MEMB      2               0.0000000000
       159         2  23SM      C2S            -4.6720768514        1.6622348003       21.3355231835  MEMB      2               0.0000000000
       160         2  23SM      H2S            -4.2272085441        0.6417353539       21.4094466400  MEMB      2               0.0000000000
       161         2  23SM      C3S            -5.7645837854        1.6537264087       20.2573498355  MEMB      2               0.0000000000
       162         2  23SM      H3S            -6.3796277922        2.5774884921       20.3098836628  MEMB      2               0.0000000000
       163         2  23SM      O3             -6.6122733799        0.5165270366       20.4675393683  MEMB      2               0.0000000000
       164         2  23SM      HO3            -6.3196818952        0.1740537990       21.3176786517  MEMB      2               0.0000000000
       165         2  23SM      C4S            -5.0939605749        1.5227437725       18.9146325099  MEMB      2               0.0000000000
       166         2  23SM      H4S            -4.7186205146        0.5134592526       18.7385522286  MEMB      2               0.0000000000
       167         2  23SM      C5S            -4.8697668443        2.4938477800       18.0005456383  MEMB      2               0.0000000000
       168         2  23SM      H5S            -5.2427105713        3.5099212678       18.2180825098  MEMB      2               0.0000000000
       169         2  23SM      C6S            -4.1883985618        2.3195598264       16.6548077200  MEMB      2               0.0000000000
       170         2  23SM      H6S            -4.7770834419        2.8906082493       15.9057814162  MEMB      2               0.0000000000
       171         2  23SM      H6T            -4.2212975482        1.2643631858       16.3268185122  MEMB      2               0.0000000000
       172         2  23SM      C7S            -2.7028394814        2.6991897080       16.4712671287  MEMB      2               0.0000000000
       173         2  23SM      H7S            -2.0773264812        1.9468999369       16.9830318305  MEMB      2               0.0000000000
       174         2  23SM      H7T            -2.5134371058        3.6741871969       16.9712996343  MEMB      2               0.0000000000
       175         2  23SM      C8S            -2.2922446155        2.9006020844       14.9861797496  MEMB      2               0.0000000000
       176         2  23SM      H8S            -1.2092491910        3.1431090831       14.9348362021  MEMB      2               0.0000000000
       177         2  23SM      H8T            -2.8364865136        3.8173602999       14.6560092645  MEMB      2               0.0000000000
       178         2  23SM      C9S            -2.6269514119        1.8056708659       13.9342614482  MEMB      2               0.0000000000
       179         2  23SM      H9S            -3.6680630078        1.4474816767       14.0875251917  MEMB      2               0.0000000000
       180         2  23SM      H9T            -1.9501608593        0.9347726731       14.0583923001  MEMB      2               0.0000000000
       181         2  23SM      C10S           -2.5174217600        2.3582638867       12.4798421217  MEMB      2               0.0000000000
       182         2  23SM      H10S           -1.4769851187        2.7166861036       12.3184215875  MEMB      2               0.0000000000
       183         2  23SM      H10T           -3.1764815565        3.2486053014       12.4066750699  MEMB      2               0.0000000000
       184         2  23SM      C11S           -2.8952257538        1.4022622848       11.3126956426  MEMB      2               0.0000000000
       185         2  23SM      H11S           -3.9591969246        1.1117806461       11.4207996660  MEMB      2               0.0000000000
       186         2  23SM      H11T           -2.3085674800        0.4637573096       11.4007837364  MEMB      2               0.0000000000
       187         2  23SM      C12S           -2.6471293308        1.9836585690        9.8885708187  MEMB      2               0.0000000000
       188         2  23SM      H12S           -1.6702493044        2.5057737240        9.8750601721  MEMB      2               0.0000000000
       189         2  23SM      H12T           -3.4094317903        2.7365446323        9.6189713407  MEMB      2               0.0000000000
       190         2  23SM      C13S           -2.6388319077        0.9378473064        8.7558661833  MEMB      2               0.0000000000
       191         2  23SM      H13S           -3.5051591310        0.2789262186        8.9089644082  MEMB      2               0.0000000000
       192         2  23SM      H13T           -1.7249270146        0.3098386267        8.8626974827  MEMB      2               0.0000000000
       193         2  23SM      C14S           -2.6867116792        1.5217306089        7.3227773500  MEMB      2               0.0000000000
       194         2  23SM      H14S           -2.0313951170        0.8951962103        6.6696883914  MEMB      2               0.0000000000
       195         2  23SM      H14T           -2.2338794067        2.5344320257        7.3360459114  MEMB      2               0.0000000000
       196         2  23SM      C15S           -4.0959806866        1.6223512618        6.6710390939  MEMB      2               0.0000000000
       197         2  23SM      H15S           -4.3215862651        2.7010758038        6.5336677997  MEMB      2               0.0000000000
       198         2  23SM      H15T           -4.8632654222        1.2130229056        7.3571323288  MEMB      2               0.0000000000
       199         2  23SM      C16S           -4.1354501036        0.9257996022        5.2911672050  MEMB      2               0.0000000000
       200         2  23SM      H16S           -3.6120254442       -0.0389104838        5.4468855798  MEMB      2               0.0000000000
       201         2  23SM      H16T           -3.5412944159        1.5568309366        4.5937147807  MEMB      2               0.0000000000
       202         2  23SM      C17S           -5.4718051285        0.5789714611        4.5932919506  MEMB      2               0.0000000000
       203         2  23SM      H17S           -6.2262451914        1.3718666455        4.7384292189  MEMB      2               0.0000000000
       204         2  23SM      H17T           -5.8870546415       -0.3552197160        5.0369246769  MEMB      2               0.0000000000
       205         2  23SM      C18S           -5.3131078801        0.3872578035        3.0715104020  MEMB      2               0.0000000000
       206         2  23SM      H18S           -5.0347694961        1.3462972270        2.5893249770  MEMB      2               0.0000000000
       207         2  23SM      H18T           -6.2616275960        0.0354436851        2.6098495185  MEMB      2               0.0000000000
       208         2  23SM      H18U           -4.5172276784       -0.3428576880        2.8285644286  MEMB      2               0.0000000000
       209         2  23SM      C1F            -2.3347228323        2.3897105971       21.1941113469  MEMB      2               0.0000000000
       210         2  23SM      OF             -1.8855700135        1.2667008474       21.4006031861  MEMB      2               0.0000000000
       211         2  23SM      C2F            -1.4377464208        3.5680120941       20.9627066266  MEMB      2               0.0000000000
       212         2  23SM      H2F            -1.2199145655        3.6140395309       19.8762887672  MEMB      2               0.0000000000
       213         2  23SM      H2G            -0.4758746934        3.3560845669       21.4709065922  MEMB      2               0.0000000000
       214         2  23SM      C3F            -1.9976582003        4.9358129809       21.4519061889  MEMB      2               0.0000000000
       215         2  23SM      H3F            -1.1515622809        5.6605222777       21.3963248305  MEMB      2               0.0000000000
       216         2  23SM      H3G            -2.2782478847        4.8614881577       22.5273642313  MEMB      2               0.0000000000
       217         2  23SM      C4F            -3.1666106232        5.5867454759       20.6673594538  MEMB      2               0.0000000000
       218         2  23SM      H4F            -3.2398984651        6.6454776838       21.0022714039  MEMB      2               0.0000000000
       219         2  23SM      H4G            -4.1365647303        5.1156306749       20.9344402359  MEMB      2               0.0000000000
       220         2  23SM      C5F            -3.0269948301        5.5612683727       19.1381559321  MEMB      2               0.0000000000
       221         2  23SM      H5F            -2.9480023621        4.5036138912       18.8134176582  MEMB      2               0.0000000000
       222         2  23SM      H5G            -2.0943225649        6.0854067885       18.8365109820  MEMB      2               0.0000000000
       223         2  23SM      C6F            -4.2226358302        6.1991288332       18.3987850381  MEMB      2               0.0000000000
       224         2  23SM      H6F            -4.3067164335        7.2745299157       18.6704688030  MEMB      2               0.0000000000
       225         2  23SM      H6G            -5.1691278696        5.7075016766       18.7171869121  MEMB      2               0.0000000000
       226         2  23SM      C7F            -4.1016223260        6.0706124352       16.8697781518  MEMB      2               0.0000000000
       227         2  23SM      H7F            -4.1518015828        5.0029411100       16.5836513264  MEMB      2               0.0000000000
       228         2  23SM      H7G            -3.1087632231        6.4505145313       16.5556374002  MEMB      2               0.0000000000
       229         2  23SM      C8F            -5.1881171680        6.8051011242       16.0712340937  MEMB      2               0.0000000000
       230         2  23SM      H8F            -5.1151200362        7.8911009242       16.2982960927  MEMB      2               0.0000000000
       231         2  23SM      H8G            -6.1965920097        6.4601207178       16.3890629882  MEMB      2               0.0000000000
       232         2  23SM      C9F            -5.0512651728        6.6009034351       14.5505834855  MEMB      2               0.0000000000
       233         2  23SM      H9F            -3.9794291871        6.6300686308       14.2565830363  MEMB      2               0.0000000000
       234         2  23SM      H9G            -5.5627215176        7.4356923575       14.0207866397  MEMB      2               0.0000000000
       235         2  23SM      C10F           -5.6948922416        5.2962051725       14.0835163141  MEMB      2               0.0000000000
       236         2  23SM      H10F           -6.7735236639        5.2927392839       14.3600098438  MEMB      2               0.0000000000
       237         2  23SM      H10G           -5.2044155404        4.4509177855       14.6092252761  MEMB      2               0.0000000000
       238         2  23SM      C11F           -5.5714941855        5.0565414924       12.5802963586  MEMB      2               0.0000000000
       239         2  23SM      H11F           -4.4914641952        5.0286460085       12.3086182667  MEMB      2               0.0000000000
       240         2  23SM      H11G           -6.0376919036        5.8915711947       12.0126916469  MEMB      2               0.0000000000
       241         2  23SM      C12F           -6.2289906996        3.7303866665       12.1955259912  MEMB      2               0.0000000000
       242         2  23SM      H12F           -7.3204163312        3.7544310042       12.4024644807  MEMB      2               0.0000000000
       243         2  23SM      H12G           -5.7842168081        2.9314788200       12.8362952233  MEMB      2               0.0000000000
       244         2  23SM      C13F           -5.9623007002        3.3689887672       10.7389169934  MEMB      2               0.0000000000
       245         2  23SM      H13F           -6.1097876842        2.2722682517       10.6079789205  MEMB      2               0.0000000000
       246         2  23SM      H13G           -4.8995979172        3.6028912973       10.5314317155  MEMB      2               0.0000000000
       247         2  23SM      C14F           -6.8257598166        4.1159737237        9.7180586817  MEMB      2               0.0000000000
       248         2  23SM      H14F           -6.5635335679        5.1971962028        9.7154055687  MEMB      2               0.0000000000
       249         2  23SM      H14G           -7.8969431999        4.0216780173       10.0022727784  MEMB      2               0.0000000000
       250         2  23SM      C15F           -6.6121972317        3.5231573890        8.3219760979  MEMB      2               0.0000000000
       251         2  23SM      H15F           -6.6915474264        2.4138661378        8.4077503744  MEMB      2               0.0000000000
       252         2  23SM      H15G           -5.5805085404        3.7561103725        7.9795102283  MEMB      2               0.0000000000
       253         2  23SM      C16F           -7.6317456516        3.9910458069        7.2797055998  MEMB      2               0.0000000000
       254         2  23SM      H16F           -7.4492822205        5.0555844117        7.0157481726  MEMB      2               0.0000000000
       255         2  23SM      H16G           -8.6498792528        3.9163164681        7.7235615473  MEMB      2               0.0000000000
       256         2  23SM      C17F           -7.5860675578        3.1142386849        6.0211354216  MEMB      2               0.0000000000
       257         2  23SM      H17F           -7.6737175564        2.0519995332        6.3471758757  MEMB      2               0.0000000000
       258         2  23SM      H17G           -6.5995027445        3.2442666474        5.5229906454  MEMB      2               0.0000000000
       259         2  23SM      C18F           -8.7174633186        3.4157587891        5.0277041634  MEMB      2               0.0000000000
       260         2  23SM      H18F           -8.4796838931        4.3449030684        4.4724435265  MEMB      2               0.0000000000
       261         2  23SM      H18G           -9.6282909642        3.6322042079        5.6313853682  MEMB      2               0.0000000000
       262         2  23SM      C19F           -9.0723562623        2.2459526962        4.0812826071  MEMB      2               0.0000000000
       263         2  23SM      H19F          -10.1721658214        2.2835469139        3.9034994630  MEMB      2               0.0000000000
       264         2  23SM      H19G           -8.8624854866        1.2785024493        4.5886683431  MEMB      2               0.0000000000
       265         2  23SM      C20F           -8.4025389681        2.2671196644        2.6926501336  MEMB      2               0.0000000000
       266         2  23SM      H20F           -8.8282346769        1.4477650839        2.0711654399  MEMB      2               0.0000000000
       267         2  23SM      H20G           -7.3138185345        2.0861996821        2.7972770434  MEMB      2               0.0000000000
       268         2  23SM      C21F           -8.5782972590        3.6022834717        1.9589114198  MEMB      2               0.0000000000
       269         2  23SM      H21F           -7.8513734092        4.3037657001        2.4273165542  MEMB      2               0.0000000000
       270         2  23SM      H21G           -9.6154815556        3.9707440485        2.1107222648  MEMB      2               0.0000000000
       271         2  23SM      C22F           -8.2654409361        3.5797806811        0.4616421067  MEMB      2               0.0000000000
       272         2  23SM      H22F           -8.8849026415        2.8097706700       -0.0387962729  MEMB      2               0.0000000000
       273         2  23SM      H22G           -7.2138450335        3.2628413004        0.3698725401  MEMB      2               0.0000000000
       274         2  23SM      C23F           -8.3976229286        4.9353122126       -0.2430832153  MEMB      2               0.0000000000
       275         2  23SM      H23F           -7.8971101392        4.9138089811       -1.2368030729  MEMB      2               0.0000000000
       276         2  23SM      H23G           -7.9130474107        5.7317713632        0.3647849168  MEMB      2               0.0000000000
       277         2  23SM      H23H           -9.4644884013        5.2040545050       -0.3922073145  MEMB      2               0.0000000000
       278         3  23SM      N              -4.1812826312       -5.9512355209       27.6429712571  MEMB      3               0.0000000000
       279         3  23SM      C15            -5.2634789451       -6.9595423201       27.4388716416  MEMB      3               0.0000000000
       280         3  23SM      H15A           -6.2274144998       -6.5658720288       27.7519502849  MEMB      3               0.0000000000
       281         3  23SM      H15B           -5.0779665414       -7.9078552523       27.9227830943  MEMB      3               0.0000000000
       282         3  23SM      H15C           -5.3541596659       -7.1233677168       26.3637251968  MEMB      3               0.0000000000
       283         3  23SM      C14            -3.9679954415       -5.7361531437       29.1136427918  MEMB      3               0.0000000000
       284         3  23SM      H14A           -3.4955142581       -6.6251358726       29.5316162049  MEMB      3               0.0000000000
       285         3  23SM      H14B           -4.9014967416       -5.5656955712       29.6427161270  MEMB      3               0.0000000000
       286         3  23SM      H14C           -3.3345374501       -4.8888601765       29.3356727773  MEMB      3               0.0000000000
       287         3  23SM      C13            -2.8929320210       -6.4720672508       27.0864077749  MEMB      3               0.0000000000
       288         3  23SM      H13A           -2.0829956364       -5.7695633150       27.2374060280  MEMB      3               0.0000000000
       289         3  23SM      H13B           -2.9794803973       -6.6265546143       26.0166737321  MEMB      3               0.0000000000
       290         3  23SM      H13C           -2.6293023557       -7.4180550522       27.5358750504  MEMB      3               0.0000000000
       291         3  23SM      C12            -4.5515519256       -4.6609432388       26.8989745958  MEMB      3               0.0000000000
       292         3  23SM      H12A           -3.8038162637       -3.9099122830       27.1297669438  MEMB      3               0.0000000000
       293         3  23SM      H12B           -5.5178743331       -4.2719055115       27.2233683990  MEMB      3               0.0000000000
       294         3  23SM      C11            -4.6566640074       -4.7341296833       25.3448686910  MEMB      3               0.0000000000
       295         3  23SM      H11A           -3.6558247222       -4.9735753676       24.9248960687  MEMB      3               0.0000000000
       296         3  23SM      H11B           -4.9070470873       -3.7170179232       24.9570256401  MEMB      3               0.0000000000
       297         3  23SM      P              -7.1331221981       -5.3974185265       24.7309013374  MEMB      3               0.0000000000
       298         3  23SM      O13            -7.8351110249       -6.7020317674       24.7522178081  MEMB      3               0.0000000000
       299         3  23SM      O14            -7.4504865969       -4.3990906168       25.7826305907  MEMB      3               0.0000000000
       300         3  23SM      O11            -7.2181333370       -4.7388004185       23.2730243864  MEMB      3               0.0000000000
       301         3  23SM      O12            -5.5866319281       -5.7158071196       24.8933491257  MEMB      3               0.0000000000
       302         3  23SM      C1S            -6.4877757409       -5.3561703114       22.2056123820  MEMB      3               0.0000000000
       303         3  23SM      H1S            -6.6378719414       -6.4656089856       22.2281284566  MEMB      3               0.0000000000
       304         3  23SM      H1T            -5.3965644186       -5.1750779916       22.3113702792  MEMB      3               0.0000000000
       305         3  23SM      NF             -6.3385964163       -3.7147990398       20.2424873308  MEMB      3               0.0000000000
       306         3  23SM      HNF            -6.9447003997       -3.0101938321       19.8892095359  MEMB      3               0.0000000000
       307         3  23SM      C2S            -6.9865332274       -4.9225277418       20.7844972011  MEMB      3               0.0000000000
       308         3  23SM      H2S            -6.7482201955       -5.7587711668       20.0871437507  MEMB      3               0.0000000000
       309         3  23SM      C3S            -8.5346484771       -4.7307025062       20.8114299499  MEMB      3               0.0000000000
       310         3  23SM      H3S            -8.8118948737       -3.9675944167       21.5671516651  MEMB      3               0.0000000000
       311         3  23SM      O3             -9.2894960768       -5.9001413912       21.1153194478  MEMB      3               0.0000000000
       312         3  23SM      HO3            -8.7294666362       -6.4665371376       21.6620769351  MEMB      3               0.0000000000
       313         3  23SM      C4S            -8.9290898635       -4.2146877917       19.4469242395  MEMB      3               0.0000000000
       314         3  23SM      H4S            -8.8224510120       -3.1292705592       19.3545157786  MEMB      3               0.0000000000
       315         3  23SM      C5S            -9.4288557102       -4.9015951965       18.4036742843  MEMB      3               0.0000000000
       316         3  23SM      H5S            -9.6637868671       -5.9709797899       18.5263357002  MEMB      3               0.0000000000
       317         3  23SM      C6S            -9.7630435574       -4.3052773828       17.0671425523  MEMB      3               0.0000000000
       318         3  23SM      H6S            -9.5695728298       -3.2045657156       17.0325290211  MEMB      3               0.0000000000
       319         3  23SM      H6T           -10.8308811012       -4.4513018666       16.7872192275  MEMB      3               0.0000000000
       320         3  23SM      C7S            -8.8259431744       -5.0096696041       16.0525321710  MEMB      3               0.0000000000
       321         3  23SM      H7S            -9.1721814861       -6.0555702906       15.9075953110  MEMB      3               0.0000000000
       322         3  23SM      H7T            -7.7761484107       -5.0310534224       16.4325032244  MEMB      3               0.0000000000
       323         3  23SM      C8S            -8.7979051937       -4.2631788602       14.7134533428  MEMB      3               0.0000000000
       324         3  23SM      H8S            -8.1930134086       -3.3626774989       14.9064036223  MEMB      3               0.0000000000
       325         3  23SM      H8T            -9.8239013064       -3.9042651529       14.5407857528  MEMB      3               0.0000000000
       326         3  23SM      C9S            -8.2308691721       -5.0061776131       13.4770758422  MEMB      3               0.0000000000
       327         3  23SM      H9S            -8.6412035070       -6.0382813739       13.4408255487  MEMB      3               0.0000000000
       328         3  23SM      H9T            -7.1278555748       -5.0766843312       13.6025390536  MEMB      3               0.0000000000
       329         3  23SM      C10S           -8.5532692373       -4.3305256075       12.1181449404  MEMB      3               0.0000000000
       330         3  23SM      H10S           -8.4013823973       -3.2338227533       12.1857982109  MEMB      3               0.0000000000
       331         3  23SM      H10T           -9.6261581802       -4.4900688685       11.8878177799  MEMB      3               0.0000000000
       332         3  23SM      C11S           -7.7431862264       -4.8398455495       10.9083659742  MEMB      3               0.0000000000
       333         3  23SM      H11S           -7.6299155426       -5.9414714139       10.9790521969  MEMB      3               0.0000000000
       334         3  23SM      H11T           -6.7251378123       -4.3923533556       10.9645684886  MEMB      3               0.0000000000
       335         3  23SM      C12S           -8.3929164049       -4.4807264166        9.5464471720  MEMB      3               0.0000000000
       336         3  23SM      H12S           -8.8908688783       -3.4942742367        9.6561300318  MEMB      3               0.0000000000
       337         3  23SM      H12T           -9.1806870358       -5.2250439522        9.3057211911  MEMB      3               0.0000000000
       338         3  23SM      C13S           -7.3829386153       -4.3716896947        8.3824898964  MEMB      3               0.0000000000
       339         3  23SM      H13S           -6.9809940905       -5.3711305708        8.1228207339  MEMB      3               0.0000000000
       340         3  23SM      H13T           -6.5368849152       -3.7861428472        8.8003769515  MEMB      3               0.0000000000
       341         3  23SM      C14S           -7.8615681405       -3.6287263885        7.1036732094  MEMB      3               0.0000000000
       342         3  23SM      H14S           -6.9717772523       -3.1731837642        6.6127832931  MEMB      3               0.0000000000
       343         3  23SM      H14T           -8.5417422725       -2.8008028846        7.3860325005  MEMB      3               0.0000000000
       344         3  23SM      C15S           -8.4991069203       -4.5100351674        6.0167577511  MEMB      3               0.0000000000
       345         3  23SM      H15S           -9.2982976028       -5.1194741520        6.4979103833  MEMB      3               0.0000000000
       346         3  23SM      H15T           -7.7293492786       -5.2148659622        5.6323870551  MEMB      3               0.0000000000
       347         3  23SM      C16S           -9.1393425981       -3.7533935434        4.8211296222  MEMB      3               0.0000000000
       348         3  23SM      H16S          -10.0114914981       -3.2066266283        5.2151043536  MEMB      3               0.0000000000
       349         3  23SM      H16T           -9.5133257564       -4.5132729628        4.0982683942  MEMB      3               0.0000000000
       350         3  23SM      C17S           -8.3133700992       -2.7094592809        4.0384454350  MEMB      3               0.0000000000
       351         3  23SM      H17S           -7.3294706927       -3.1413256474        3.7886775511  MEMB      3               0.0000000000
       352         3  23SM      H17T           -8.1243287187       -1.8192136060        4.6773262044  MEMB      3               0.0000000000
       353         3  23SM      C18S           -8.9825031630       -2.2492911034        2.7272551763  MEMB      3               0.0000000000
       354         3  23SM      H18S           -9.2447773423       -3.1265381170        2.0944708433  MEMB      3               0.0000000000
       355         3  23SM      H18T           -8.3038039593       -1.5982191842        2.1342059338  MEMB      3               0.0000000000
       356         3  23SM      H18U           -9.9118927925       -1.6795964745        2.9309378037  MEMB      3               0.0000000000
       357         3  23SM      C1F            -5.0603841492       -3.6728307517       19.8749174152  MEMB      3               0.0000000000
       358         3  23SM      OF             -4.2530735365       -4.5274532699       20.2256094428  MEMB      3               0.0000000000
       359         3  23SM      C2F            -4.6979009341       -2.5274593266       18.9577162697  MEMB      3               0.0000000000
       360         3  23SM      H2F            -3.8482126945       -2.8421659761       18.3166389999  MEMB      3               0.0000000000
       361         3  23SM      H2G            -4.3656570799       -1.6770773610       19.5936646899  MEMB      3               0.0000000000
       362         3  23SM      C3F            -5.8738229561       -2.0440582004       18.0496030536  MEMB      3               0.0000000000
       363         3  23SM      H3F            -6.5795177465       -1.4323353250       18.6561661804  MEMB      3               0.0000000000
       364         3  23SM      H3G            -6.4456959927       -2.9087140175       17.6435180222  MEMB      3               0.0000000000
       365         3  23SM      C4F            -5.4122212645       -1.2041994026       16.8366093514  MEMB      3               0.0000000000
       366         3  23SM      H4F            -5.0823148781       -1.8787219095       16.0228428402  MEMB      3               0.0000000000
       367         3  23SM      H4G            -4.5002244966       -0.6551512909       17.1525944516  MEMB      3               0.0000000000
       368         3  23SM      C5F            -6.4461369263       -0.1763351936       16.3051187309  MEMB      3               0.0000000000
       369         3  23SM      H5F            -5.9431893138        0.5976914748       15.6900465697  MEMB      3               0.0000000000
       370         3  23SM      H5G            -6.9313751408        0.3404525228       17.1649027468  MEMB      3               0.0000000000
       371         3  23SM      C6F            -7.5305695176       -0.7078782581       15.3604517432  MEMB      3               0.0000000000
       372         3  23SM      H6F            -8.2631659676        0.0975076497       15.1279824692  MEMB      3               0.0000000000
       373         3  23SM      H6G            -8.1047550075       -1.4703874946       15.9392142104  MEMB      3               0.0000000000
       374         3  23SM      C7F            -7.0199494688       -1.3507861304       14.0501552631  MEMB      3               0.0000000000
       375         3  23SM      H7F            -7.8990762167       -1.8542414937       13.5968971199  MEMB      3               0.0000000000
       376         3  23SM      H7G            -6.2851563059       -2.1386804162       14.3180601930  MEMB      3               0.0000000000
       377         3  23SM      C8F            -6.4305084792       -0.5000240759       12.8999320373  MEMB      3               0.0000000000
       378         3  23SM      H8F            -5.7965080095        0.3198123188       13.2951863052  MEMB      3               0.0000000000
       379         3  23SM      H8G            -7.2776969123       -0.0361598893       12.3481884734  MEMB      3               0.0000000000
       380         3  23SM      C9F            -5.6031619870       -1.4125880820       11.9511147428  MEMB      3               0.0000000000
       381         3  23SM      H9F            -6.0339445882       -2.4380901304       12.0289608668  MEMB      3               0.0000000000
       382         3  23SM      H9G            -4.5627593250       -1.4677470592       12.3382872501  MEMB      3               0.0000000000
       383         3  23SM      C10F           -5.5953832934       -1.0831856489       10.4409169119  MEMB      3               0.0000000000
       384         3  23SM      H10F           -5.3337955951       -0.0200113536       10.2676303539  MEMB      3               0.0000000000
       385         3  23SM      H10G           -6.6242635445       -1.2349716566       10.0426575795  MEMB      3               0.0000000000
       386         3  23SM      C11F           -4.6368207905       -1.9707314956        9.6093560515  MEMB      3               0.0000000000
       387         3  23SM      H11F           -4.7974977834       -3.0425976058        9.8613150807  MEMB      3               0.0000000000
       388         3  23SM      H11G           -3.5757293739       -1.7399127216        9.8508081500  MEMB      3               0.0000000000
       389         3  23SM      C12F           -4.8647117571       -1.8107638192        8.0975096909  MEMB      3               0.0000000000
       390         3  23SM      H12F           -4.6513281725       -0.7903521646        7.7353010464  MEMB      3               0.0000000000
       391         3  23SM      H12G           -5.9412306112       -1.9548811783        7.8865776924  MEMB      3               0.0000000000
       392         3  23SM      C13F           -4.0427563267       -2.7651613871        7.2238979773  MEMB      3               0.0000000000
       393         3  23SM      H13F           -4.3417439923       -2.5100261600        6.1904940094  MEMB      3               0.0000000000
       394         3  23SM      H13G           -4.3225072328       -3.8217639903        7.4306458298  MEMB      3               0.0000000000
       395         3  23SM      C14F           -2.5224263433       -2.6272577508        7.3872479167  MEMB      3               0.0000000000
       396         3  23SM      H14F           -2.3019727066       -3.2349387693        8.2980504484  MEMB      3               0.0000000000
       397         3  23SM      H14G           -2.2450834494       -1.5779319223        7.6114557531  MEMB      3               0.0000000000
       398         3  23SM      C15F           -1.6675360676       -3.2254877900        6.2438293986  MEMB      3               0.0000000000
       399         3  23SM      H15F           -2.1103948559       -4.1874795795        5.9156821846  MEMB      3               0.0000000000
       400         3  23SM      H15G           -0.6824027243       -3.4780878515        6.7048126100  MEMB      3               0.0000000000
       401         3  23SM      C16F           -1.3213322812       -2.3590077052        5.0053330144  MEMB      3               0.0000000000
       402         3  23SM      H16F           -0.4712376711       -2.8839826747        4.5036605904  MEMB      3               0.0000000000
       403         3  23SM      H16G           -0.9363605732       -1.3653419131        5.3235699853  MEMB      3               0.0000000000
       404         3  23SM      C17F           -2.3962077980       -2.1866116002        3.9029225429  MEMB      3               0.0000000000
       405         3  23SM      H17F           -1.8690953234       -2.0384560064        2.9311780874  MEMB      3               0.0000000000
       406         3  23SM      H17G           -2.9511528662       -1.2518358088        4.0822866032  MEMB      3               0.0000000000
       407         3  23SM      C18F           -3.3818557037       -3.3567978379        3.7406924921  MEMB      3               0.0000000000
       408         3  23SM      H18F           -3.8752058234       -3.6085465420        4.6941523656  MEMB      3               0.0000000000
       409         3  23SM      H18G           -2.8053022646       -4.2636019550        3.4642376720  MEMB      3               0.0000000000
       410         3  23SM      C19F           -4.5330906561       -3.1270834687        2.7441842537  MEMB      3               0.0000000000
       411         3  23SM      H19F           -4.1151563783       -2.8228785434        1.7612324294  MEMB      3               0.0000000000
       412         3  23SM      H19G           -5.2084589835       -2.3219254945        3.1014592315  MEMB      3               0.0000000000
       413         3  23SM      C20F           -5.3679419537       -4.4078551691        2.5973123488  MEMB      3               0.0000000000
       414         3  23SM      H20F           -5.9410227197       -4.6043096208        3.5262778425  MEMB      3               0.0000000000
       415         3  23SM      H20G           -4.6309359823       -5.2296277770        2.5241455635  MEMB      3               0.0000000000
       416         3  23SM      C21F           -6.3067587893       -4.4178694237        1.3784788749  MEMB      3               0.0000000000
       417         3  23SM      H21F           -5.6921895043       -4.2300769359        0.4765373225  MEMB      3               0.0000000000
       418         3  23SM      H21G           -7.0195327246       -3.5722776611        1.4348459658  MEMB      3               0.0000000000
       419         3  23SM      C22F           -7.0741638040       -5.7399140668        1.1731454252  MEMB      3               0.0000000000
       420         3  23SM      H22F           -7.2353057581       -5.8719675953        0.0769514016  MEMB      3               0.0000000000
       421         3  23SM      H22G           -8.0823290991       -5.6767784489        1.6406131577  MEMB      3               0.0000000000
       422         3  23SM      C23F           -6.3402067169       -6.9705828465        1.7191994704  MEMB      3               0.0000000000
       423         3  23SM      H23F           -5.2530255090       -6.8976687934        1.5067917080  MEMB      3               0.0000000000
       424         3  23SM      H23G           -6.6976367418       -7.9041494483        1.2485812487  MEMB      3               0.0000000000
       425         3  23SM      H23H           -6.4739587623       -7.0398390220        2.8201269433  MEMB      3               0.0000000000
       426         4  CHL1      C3              1.7708095818        7.5259410320       17.3460314662  MEMB      4               0.0000000000
       427         4  CHL1      H3              2.8160898918        7.4702660063       16.9593158553  MEMB      4               0.0000000000
       428         4  CHL1      O3              1.8066230037        7.6292240272       18.7644552099  MEMB      4               0.0000000000
       429         4  CHL1      H3'             0.8773216325        7.5768596872       19.0203007093  MEMB      4               0.0000000000
       430         4  CHL1      C4              1.0649417828        8.7508351349       16.7405611560  MEMB      4               0.0000000000
       431         4  CHL1      H4A             0.0384678736        8.8132190148       17.1599516823  MEMB      4               0.0000000000
       432         4  CHL1      H4B             1.6079622772        9.6618526194       17.0855267279  MEMB      4               0.0000000000
       433         4  CHL1      C5              0.9984219700        8.6639051202       15.2262841795  MEMB      4               0.0000000000
       434         4  CHL1      C6              1.5333698373        9.6210144577       14.4526616690  MEMB      4               0.0000000000
       435         4  CHL1      H6              2.0044157869       10.4960180219       14.9237425954  MEMB      4               0.0000000000
       436         4  CHL1      C7              1.5015482869        9.6102385742       12.9524659790  MEMB      4               0.0000000000
       437         4  CHL1      H7A             1.1801142861       10.5983570671       12.5593943931  MEMB      4               0.0000000000
       438         4  CHL1      H7B             2.5298813789        9.4207505378       12.5742385926  MEMB      4               0.0000000000
       439         4  CHL1      C8              0.5636752683        8.5199965182       12.3660640658  MEMB      4               0.0000000000
       440         4  CHL1      H8             -0.4812084403        8.8897064210       12.4373668275  MEMB      4               0.0000000000
       441         4  CHL1      C14             0.9170635833        8.2744783219       10.9065332697  MEMB      4               0.0000000000
       442         4  CHL1      H14             1.9671950391        7.8817360806       10.9152442535  MEMB      4               0.0000000000
       443         4  CHL1      C15             0.9511226267        9.4905432373        9.9637434722  MEMB      4               0.0000000000
       444         4  CHL1      H15A            0.0307894250       10.0952520946       10.1145210425  MEMB      4               0.0000000000
       445         4  CHL1      H15B            1.8407916280       10.1264102169       10.1378109454  MEMB      4               0.0000000000
       446         4  CHL1      C16             0.9461301241        8.8589857811        8.5650319278  MEMB      4               0.0000000000
       447         4  CHL1      H16A            0.1296470996        9.3172082467        7.9659471853  MEMB      4               0.0000000000
       448         4  CHL1      H16B            1.9092457364        9.0115525204        8.0384391411  MEMB      4               0.0000000000
       449         4  CHL1      C17             0.6774399481        7.3296522493        8.7702712374  MEMB      4               0.0000000000
       450         4  CHL1      H17             1.6767188651        6.8316620500        8.7963374542  MEMB      4               0.0000000000
       451         4  CHL1      C13             0.0940397568        7.2026196956       10.1980409638  MEMB      4               0.0000000000
       452         4  CHL1      C18            -1.4035246603        7.5899344656       10.1404721851  MEMB      4               0.0000000000
       453         4  CHL1      H18A           -2.0080315661        6.7549580619        9.7343614471  MEMB      4               0.0000000000
       454         4  CHL1      H18B           -1.8020725967        7.8157514218       11.1461015503  MEMB      4               0.0000000000
       455         4  CHL1      H18C           -1.5547780105        8.4747071365        9.4935414656  MEMB      4               0.0000000000
       456         4  CHL1      C12             0.2980441719        5.8818224796       10.9715458635  MEMB      4               0.0000000000
       457         4  CHL1      H12A           -0.3166748762        5.0618406257       10.5500940620  MEMB      4               0.0000000000
       458         4  CHL1      H12B            1.3673883230        5.5867550383       10.9052332328  MEMB      4               0.0000000000
       459         4  CHL1      C11            -0.0897034441        6.0422119790       12.4516474964  MEMB      4               0.0000000000
       460         4  CHL1      H11A           -1.1842227427        6.2262951604       12.4975568109  MEMB      4               0.0000000000
       461         4  CHL1      H11B            0.1035837864        5.0812259668       12.9697880942  MEMB      4               0.0000000000
       462         4  CHL1      C9              0.6834361229        7.2025315127       13.1423620943  MEMB      4               0.0000000000
       463         4  CHL1      H9              1.7631817612        6.9212014433       13.0653434394  MEMB      4               0.0000000000
       464         4  CHL1      C10             0.3946101224        7.3605649562       14.6573430459  MEMB      4               0.0000000000
       465         4  CHL1      C19            -1.1401164914        7.4098397823       14.8568626758  MEMB      4               0.0000000000
       466         4  CHL1      H19A           -1.5955021886        6.4294966982       14.6066491265  MEMB      4               0.0000000000
       467         4  CHL1      H19B           -1.4041262218        7.6282176615       15.9088214170  MEMB      4               0.0000000000
       468         4  CHL1      H19C           -1.6042123770        8.1838558838       14.2120883193  MEMB      4               0.0000000000
       469         4  CHL1      C1              0.9967674193        6.1312984850       15.4068879605  MEMB      4               0.0000000000
       470         4  CHL1      H1A             0.4263068780        5.2220243817       15.1252827297  MEMB      4               0.0000000000
       471         4  CHL1      H1B             2.0449275967        5.9900215950       15.0577103105  MEMB      4               0.0000000000
       472         4  CHL1      C2              1.0174386473        6.2570512206       16.9381764073  MEMB      4               0.0000000000
       473         4  CHL1      H2A             1.5002640988        5.3650706165       17.3890374285  MEMB      4               0.0000000000
       474         4  CHL1      H2B            -0.0287347728        6.3161010833       17.3092086024  MEMB      4               0.0000000000
       475         4  CHL1      C20            -0.1068498324        6.7243151932        7.6022302821  MEMB      4               0.0000000000
       476         4  CHL1      H20            -1.0340512266        7.3219582053        7.4374179807  MEMB      4               0.0000000000
       477         4  CHL1      C21            -0.4943168172        5.2738390062        7.9215428471  MEMB      4               0.0000000000
       478         4  CHL1      H21A           -1.4650306692        5.2053560900        8.4479899348  MEMB      4               0.0000000000
       479         4  CHL1      H21B            0.2856736339        4.8787411496        8.5865911568  MEMB      4               0.0000000000
       480         4  CHL1      H21C           -0.5220747403        4.6366779983        7.0156917945  MEMB      4               0.0000000000
       481         4  CHL1      C22             0.6819973700        6.7269991266        6.2752538013  MEMB      4               0.0000000000
       482         4  CHL1      H22A            1.2627587335        7.6666766721        6.1783992189  MEMB      4               0.0000000000
       483         4  CHL1      H22B            1.4187993712        5.8939588373        6.2843585815  MEMB      4               0.0000000000
       484         4  CHL1      C23            -0.2839150757        6.5961694638        5.0835655080  MEMB      4               0.0000000000
       485         4  CHL1      H23A           -1.1236609866        5.9209232903        5.3591381775  MEMB      4               0.0000000000
       486         4  CHL1      H23B           -0.7289770167        7.5937353276        4.8828217659  MEMB      4               0.0000000000
       487         4  CHL1      C24             0.3227911233        6.0438431489        3.7922526999  MEMB      4               0.0000000000
       488         4  CHL1      H24A            0.6188789404        4.9798325461        3.9520999690  MEMB      4               0.0000000000
       489         4  CHL1      H24B           -0.4561122981        6.0593274290        2.9988092413  MEMB      4               0.0000000000
       490         4  CHL1      C25             1.5524595656        6.7924958141        3.2648203400  MEMB      4               0.0000000000
       491         4  CHL1      H25             2.3919851058        6.4819808499        3.9130980109  MEMB      4               0.0000000000
       492         4  CHL1      C26             1.7811110864        6.4077508092        1.7919695554  MEMB      4               0.0000000000
       493         4  CHL1      H26A            2.6517604567        6.9593323140        1.3759215777  MEMB      4               0.0000000000
       494         4  CHL1      H26B            1.9717746761        5.3167903480        1.6982026253  MEMB      4               0.0000000000
       495         4  CHL1      H26C            0.8957000620        6.6644224749        1.1787302361  MEMB      4               0.0000000000
       496         4  CHL1      C27             1.5408613743        8.3132411104        3.3979275148  MEMB      4               0.0000000000
       497         4  CHL1      H27A            1.2701976208        8.6576823697        4.4126152471  MEMB      4               0.0000000000
       498         4  CHL1      H27B            2.5512402085        8.7161669525        3.1591763000  MEMB      4               0.0000000000
       499         4  CHL1      H27C            0.7948768086        8.6902988638        2.6877929058  MEMB      4               0.0000000000
       500         5  DOPE      N               6.8114720456        5.9626585594       18.9945979349  MEMB      5               0.0000000000
       501         5  DOPE      HN1             6.8276718800        6.9046477215       19.4472187020  MEMB      5               0.0000000000
       502         5  DOPE      HN2             7.6478206649        5.8465246207       18.3795636550  MEMB      5               0.0000000000
       503         5  DOPE      HN3             5.9605628306        5.9022917886       18.4021312099  MEMB      5               0.0000000000
       504         5  DOPE      C12             6.8340478380        4.8548065001       20.0354597316  MEMB      5               0.0000000000
       505         5  DOPE      H12A            5.8165709456        4.7742496752       20.4684045566  MEMB      5               0.0000000000
       506         5  DOPE      H12B            7.5313703438        5.1623871007       20.8408332649  MEMB      5               0.0000000000
       507         5  DOPE      C11             7.2891820852        3.4800389292       19.4819205388  MEMB      5               0.0000000000
       508         5  DOPE      H11A            6.8637077993        3.2864078001       18.4681990442  MEMB      5               0.0000000000
       509         5  DOPE      H11B            6.8717947849        2.7044851811       20.1713385761  MEMB      5               0.0000000000
       510         5  DOPE      P               9.4590181670        2.0391675433       19.0169923508  MEMB      5               0.0000000000
       511         5  DOPE      O13             8.5173029442        0.8981725295       19.0920048011  MEMB      5               0.0000000000
       512         5  DOPE      O14            10.7513276806        1.9371527445       19.7599145759  MEMB      5               0.0000000000
       513         5  DOPE      O11             9.7635886562        2.4469615073       17.4971843747  MEMB      5               0.0000000000
       514         5  DOPE      O12             8.7161739228        3.3874794833       19.4904231905  MEMB      5               0.0000000000
       515         5  DOPE      C1             10.3000376829        3.7789827161       17.3339057272  MEMB      5               0.0000000000
       516         5  DOPE      HA             11.1983551306        3.9186800343       17.9833378461  MEMB      5               0.0000000000
       517         5  DOPE      HB              9.5500937842        4.5331901422       17.6475621363  MEMB      5               0.0000000000
       518         5  DOPE      C2             10.7823515474        4.1598212364       15.8893127157  MEMB      5               0.0000000000
       519         5  DOPE      HS             11.2515225169        5.1672543779       15.9733649697  MEMB      5               0.0000000000
       520         5  DOPE      O21             9.7477699205        4.2385164957       14.9101093879  MEMB      5               0.0000000000
       521         5  DOPE      C21             8.6844569634        4.9578041223       15.1027057595  MEMB      5               0.0000000000
       522         5  DOPE      O22             8.4630111151        5.7560173317       16.0001375106  MEMB      5               0.0000000000
       523         5  DOPE      C22             7.6643274004        4.5707757665       14.0553988496  MEMB      5               0.0000000000
       524         5  DOPE      H2R             6.9086273088        4.0411180881       14.6633627874  MEMB      5               0.0000000000
       525         5  DOPE      H2S             8.1242288799        3.8648393284       13.3326371034  MEMB      5               0.0000000000
       526         5  DOPE      C3             11.8605804944        3.1799930414       15.3301933191  MEMB      5               0.0000000000
       527         5  DOPE      HX             12.6446243569        3.0911607963       16.1148697861  MEMB      5               0.0000000000
       528         5  DOPE      HY             12.3465290867        3.6382381592       14.4379713279  MEMB      5               0.0000000000
       529         5  DOPE      O31            11.3285573043        1.8651479079       15.0388791896  MEMB      5               0.0000000000
       530         5  DOPE      C31            10.6814172741        1.7353311684       13.8720080351  MEMB      5               0.0000000000
       531         5  DOPE      O32            10.7206705011        2.5399711018       12.9574531499  MEMB      5               0.0000000000
       532         5  DOPE      C32             9.9046125968        0.3992863119       13.8282998045  MEMB      5               0.0000000000
       533         5  DOPE      H2X            10.4447515391       -0.3182735754       14.4831696499  MEMB      5               0.0000000000
       534         5  DOPE      H2Y             8.9150888508        0.5920134368       14.2906813869  MEMB      5               0.0000000000
       535         5  DOPE      C23             6.9183181269        5.7064546559       13.3235021156  MEMB      5               0.0000000000
       536         5  DOPE      H3R             6.7151699041        6.5592598212       14.0031056890  MEMB      5               0.0000000000
       537         5  DOPE      H3S             5.9294257207        5.2919469088       13.0068303824  MEMB      5               0.0000000000
       538         5  DOPE      C24             7.6005005032        6.1830569040       12.0383276488  MEMB      5               0.0000000000
       539         5  DOPE      H4R             8.6087846930        6.5917240007       12.2508578228  MEMB      5               0.0000000000
       540         5  DOPE      H4S             6.9868342373        7.0084287799       11.6102531938  MEMB      5               0.0000000000
       541         5  DOPE      C25             7.7072776622        5.0871981529       10.9760505579  MEMB      5               0.0000000000
       542         5  DOPE      H5R             6.7489868683        4.5154653591       10.9742116088  MEMB      5               0.0000000000
       543         5  DOPE      H5S             8.5013575407        4.3523916580       11.2456450354  MEMB      5               0.0000000000
       544         5  DOPE      C26             7.9568594315        5.6741347649        9.5724163512  MEMB      5               0.0000000000
       545         5  DOPE      H6R             9.0054437467        5.4093278021        9.2786803154  MEMB      5               0.0000000000
       546         5  DOPE      H6S             7.8118302739        6.7749974532        9.5439023666  MEMB      5               0.0000000000
       547         5  DOPE      C27             7.0294638096        5.0391564065        8.5420509407  MEMB      5               0.0000000000
       548         5  DOPE      H7R             7.1424479594        3.9772193564        8.8674895148  MEMB      5               0.0000000000
       549         5  DOPE      H7S             7.4015354553        5.1431267750        7.4998349428  MEMB      5               0.0000000000
       550         5  DOPE      C28             5.5341923951        5.4518316202        8.5615925633  MEMB      5               0.0000000000
       551         5  DOPE      H8R             5.2733925677        5.6885613172        9.6174464822  MEMB      5               0.0000000000
       552         5  DOPE      H8S             4.9514938198        4.5273273142        8.3351651562  MEMB      5               0.0000000000
       553         5  DOPE      C29             5.1330734376        6.6196223328        7.6555080329  MEMB      5               0.0000000000
       554         5  DOPE      H9R             5.2831749910        7.5821017966        8.1557804788  MEMB      5               0.0000000000
       555         5  DOPE      C210            4.8588006529        6.6604582033        6.3167921973  MEMB      5               0.0000000000
       556         5  DOPE      H10R            4.7394769569        7.6265586770        5.8019215167  MEMB      5               0.0000000000
       557         5  DOPE      C211            4.9220684197        5.4540015894        5.4308612928  MEMB      5               0.0000000000
       558         5  DOPE      H11R            4.6596700078        4.6516973700        6.1281291634  MEMB      5               0.0000000000
       559         5  DOPE      H11S            5.9993256029        5.4222374974        5.1584600898  MEMB      5               0.0000000000
       560         5  DOPE      C212            4.3085922722        4.9934656138        4.0808268901  MEMB      5               0.0000000000
       561         5  DOPE      H12R            3.2248960871        4.7424055812        4.1557429537  MEMB      5               0.0000000000
       562         5  DOPE      H12S            4.7812018934        4.0189677925        3.8121451744  MEMB      5               0.0000000000
       563         5  DOPE      C213            4.6500490268        5.9457138534        2.9416584243  MEMB      5               0.0000000000
       564         5  DOPE      H13R            4.3392167827        6.9768821950        3.2217582974  MEMB      5               0.0000000000
       565         5  DOPE      H13S            4.0961904267        5.5956603268        2.0437800701  MEMB      5               0.0000000000
       566         5  DOPE      C214            6.0873961237        5.9960484373        2.4438878863  MEMB      5               0.0000000000
       567         5  DOPE      H14R            6.3295052989        5.0025247515        2.0226822029  MEMB      5               0.0000000000
       568         5  DOPE      H14S            6.8218786139        6.2318695676        3.2422792367  MEMB      5               0.0000000000
       569         5  DOPE      C215            6.1644332401        7.0343094827        1.3193883561  MEMB      5               0.0000000000
       570         5  DOPE      H15R            6.0360141107        8.0300692504        1.7858464052  MEMB      5               0.0000000000
       571         5  DOPE      H15S            5.3095885739        6.8893808319        0.6207751591  MEMB      5               0.0000000000
       572         5  DOPE      C216            7.4693012666        6.9548548277        0.5316841860  MEMB      5               0.0000000000
       573         5  DOPE      H16R            8.2969657483        6.8102782598        1.2573512443  MEMB      5               0.0000000000
       574         5  DOPE      H16S            7.6548176178        7.9135871860       -0.0032852713  MEMB      5               0.0000000000
       575         5  DOPE      C217            7.4609574271        5.8079250325       -0.4875924843  MEMB      5               0.0000000000
       576         5  DOPE      H17R            7.1228950411        6.2100739345       -1.4678572497  MEMB      5               0.0000000000
       577         5  DOPE      H17S            6.7142413625        5.0421275166       -0.1777525373  MEMB      5               0.0000000000
       578         5  DOPE      C218            8.8063527205        5.1112343057       -0.6592377630  MEMB      5               0.0000000000
       579         5  DOPE      H18R            8.8322244838        4.5172603277       -1.5859283109  MEMB      5               0.0000000000
       580         5  DOPE      H18S            9.0707769481        4.4909486175        0.2245583977  MEMB      5               0.0000000000
       581         5  DOPE      H18T            9.6164527060        5.8046914414       -0.8324199874  MEMB      5               0.0000000000
       582         5  DOPE      C33             9.6829472405       -0.2208176161       12.4025761342  MEMB      5               0.0000000000
       583         5  DOPE      H3X             9.4037338698       -1.2879280827       12.5460284867  MEMB      5               0.0000000000
       584         5  DOPE      H3Y            10.6281794692       -0.2444577352       11.8415435930  MEMB      5               0.0000000000
       585         5  DOPE      C34             8.5868555235        0.4850546779       11.5528043478  MEMB      5               0.0000000000
       586         5  DOPE      H4X             7.6866563537        0.5020087141       12.1959387188  MEMB      5               0.0000000000
       587         5  DOPE      H4Y             8.9243825382        1.5264730883       11.3595684704  MEMB      5               0.0000000000
       588         5  DOPE      C35             8.2330647834       -0.1516373927       10.1784263433  MEMB      5               0.0000000000
       589         5  DOPE      H5X             7.7797764098       -1.1529925798       10.3174434268  MEMB      5               0.0000000000
       590         5  DOPE      H5Y             9.2140645391       -0.3251227851        9.6821903531  MEMB      5               0.0000000000
       591         5  DOPE      C36             7.4104937529        0.6577101610        9.1020791117  MEMB      5               0.0000000000
       592         5  DOPE      H6X             8.2781124875        0.8643066405        8.4418933188  MEMB      5               0.0000000000
       593         5  DOPE      H6Y             7.0900519113        1.6806056947        9.3646163061  MEMB      5               0.0000000000
       594         5  DOPE      C37             6.3290202603       -0.0880404604        8.2041650603  MEMB      5               0.0000000000
       595         5  DOPE      H7X             6.3580554550       -1.1138944057        8.6082119499  MEMB      5               0.0000000000
       596         5  DOPE      H7Y             5.2934495871        0.2096246208        8.4141973797  MEMB      5               0.0000000000
       597         5  DOPE      C38             6.7996546767       -0.0342865291        6.6461899902  MEMB      5               0.0000000000
       598         5  DOPE      H8X             7.4636669632       -0.8037047798        6.8823389067  MEMB      5               0.0000000000
       599         5  DOPE      H8Y             7.4995718663        0.7342430569        6.7317677326  MEMB      5               0.0000000000
       600         5  DOPE      C39             6.6832263909       -0.3265284696        5.1064143809  MEMB      5               0.0000000000
       601         5  DOPE      H9X             6.6752696650       -1.3863421676        4.9184507060  MEMB      5               0.0000000000
       602         5  DOPE      C310            6.6323546602        0.3299803137        3.8917980714  MEMB      5               0.0000000000
       603         5  DOPE      H10X            6.5880748588       -0.3344328177        3.0157562799  MEMB      5               0.0000000000
       604         5  DOPE      C311            6.6452214895        1.8072037054        3.4231540908  MEMB      5               0.0000000000
       605         5  DOPE      H11X            5.6481904573        2.0078427704        2.9664348831  MEMB      5               0.0000000000
       606         5  DOPE      H11Y            6.6259244158        2.5648890668        4.2038022013  MEMB      5               0.0000000000
       607         5  DOPE      C312            7.7134830934        2.3609917834        2.4677601153  MEMB      5               0.0000000000
       608         5  DOPE      H12X            8.6888334426        2.5816984536        2.9401543281  MEMB      5               0.0000000000
       609         5  DOPE      H12Y            7.3673651083        3.3329879051        2.0503546756  MEMB      5               0.0000000000
       610         5  DOPE      C313            7.8071510411        1.4289218527        1.2995119370  MEMB      5               0.0000000000
       611         5  DOPE      H13X            8.5596505936        1.8568898673        0.6184843034  MEMB      5               0.0000000000
       612         5  DOPE      H13Y            8.1781105842        0.4342535591        1.6310998657  MEMB      5               0.0000000000
       613         5  DOPE      C314            6.3790429926        1.3539276069        0.7351332251  MEMB      5               0.0000000000
       614         5  DOPE      H14X            5.8746916940        2.3436171188        0.7588703330  MEMB      5               0.0000000000
       615         5  DOPE      H14Y            5.7999143978        0.6540196662        1.3813117419  MEMB      5               0.0000000000
       616         5  DOPE      C315            6.2433962438        0.7611928922       -0.6313487798  MEMB      5               0.0000000000
       617         5  DOPE      H15X            5.2289349549        0.3060264116       -0.7046246736  MEMB      5               0.0000000000
       618         5  DOPE      H15Y            6.9861454558       -0.0489553164       -0.5777998713  MEMB      5               0.0000000000
       619         5  DOPE      C316            6.4013711512        1.7450645595       -1.7932698827  MEMB      5               0.0000000000
       620         5  DOPE      H16X            5.6877549761        2.5866395010       -1.6164794377  MEMB      5               0.0000000000
       621         5  DOPE      H16Y            6.0810070446        1.3008610943       -2.7481710861  MEMB      5               0.0000000000
       622         5  DOPE      C317            7.7911615445        2.3733605870       -1.9019315993  MEMB      5               0.0000000000
       623         5  DOPE      H17X            7.8298679060        3.0747774378       -2.7664160906  MEMB      5               0.0000000000
       624         5  DOPE      H17Y            7.7740449931        2.9641447479       -0.9647182136  MEMB      5               0.0000000000
       625         5  DOPE      C318            9.0873456866        1.5471729570       -1.8520616055  MEMB      5               0.0000000000
       626         5  DOPE      H18X            9.9410730405        2.2265127827       -1.6237825736  MEMB      5               0.0000000000
       627         5  DOPE      H18Y            9.0623562211        0.7867703788       -1.0469148448  MEMB      5               0.0000000000
       628         5  DOPE      H18Z            9.2995903586        1.0292860993       -2.8054375255  MEMB      5               0.0000000000
       629         6  DOPC      N               0.0257932864       -9.5771616004       20.4789081357  MEMB      6               0.0000000000
       630         6  DOPC      C12             1.0731158112      -10.6864515433       20.5214586126  MEMB      6               0.0000000000
       631         6  DOPC      H12A            0.5733400353      -11.6143963938       20.7693894911  MEMB      6               0.0000000000
       632         6  DOPC      H12B            1.7912594392      -10.4877301531       21.3081334522  MEMB      6               0.0000000000
       633         6  DOPC      C13            -0.7342636030       -9.6174508866       19.1840562915  MEMB      6               0.0000000000
       634         6  DOPC      H13A           -1.4605530436       -8.8213919860       19.1311589880  MEMB      6               0.0000000000
       635         6  DOPC      H13B           -0.0238401312       -9.4132659418       18.3683416808  MEMB      6               0.0000000000
       636         6  DOPC      H13C           -1.1667902684      -10.5883025041       19.0010412637  MEMB      6               0.0000000000
       637         6  DOPC      C14             0.6885234782       -8.2343859168       20.5363464102  MEMB      6               0.0000000000
       638         6  DOPC      H14A            1.2438352926       -8.0903501060       19.6066831549  MEMB      6               0.0000000000
       639         6  DOPC      H14B           -0.0410175560       -7.4388963280       20.6196740421  MEMB      6               0.0000000000
       640         6  DOPC      H14C            1.4064958951       -8.1703225647       21.3437171240  MEMB      6               0.0000000000
       641         6  DOPC      C15            -0.8987721005       -9.7005589042       21.6391414538  MEMB      6               0.0000000000
       642         6  DOPC      H15A           -1.6339299458       -8.8963396721       21.6480540779  MEMB      6               0.0000000000
       643         6  DOPC      H15B           -0.3492402405       -9.6073799393       22.5741912162  MEMB      6               0.0000000000
       644         6  DOPC      H15C           -1.4352364340      -10.6413863397       21.6394768438  MEMB      6               0.0000000000
       645         6  DOPC      C11             1.8843569537      -10.9396711719       19.2347751997  MEMB      6               0.0000000000
       646         6  DOPC      H11A            2.4618827507      -11.8844847119       19.3225392987  MEMB      6               0.0000000000
       647         6  DOPC      H11B            1.1341430230      -11.1016605627       18.4305524113  MEMB      6               0.0000000000
       648         6  DOPC      P               2.7231409088       -9.1398043571       17.5586543226  MEMB      6               0.0000000000
       649         6  DOPC      O13             3.9529856080       -8.3309992778       17.3927056241  MEMB      6               0.0000000000
       650         6  DOPC      O14             1.4265024421       -8.4319126715       17.4906353755  MEMB      6               0.0000000000
       651         6  DOPC      O12             2.7871188548       -9.8722360623       18.9597088188  MEMB      6               0.0000000000
       652         6  DOPC      O11             2.7274927220      -10.3941482828       16.5591386291  MEMB      6               0.0000000000
       653         6  DOPC      C1              3.9669681142      -10.7455863793       15.9532191854  MEMB      6               0.0000000000
       654         6  DOPC      HA              4.7292363535      -10.9774282070       16.7234391444  MEMB      6               0.0000000000
       655         6  DOPC      HB              4.3746957018       -9.8334031371       15.4636750248  MEMB      6               0.0000000000
       656         6  DOPC      C2              3.9132656908      -11.8952406666       14.8672299290  MEMB      6               0.0000000000
       657         6  DOPC      HS              4.9333507702      -12.3486658398       14.8560667586  MEMB      6               0.0000000000
       658         6  DOPC      O21             3.6592657447      -11.3755133804       13.5974896296  MEMB      6               0.0000000000
       659         6  DOPC      C21             4.5090774329      -10.5541151305       13.1092983329  MEMB      6               0.0000000000
       660         6  DOPC      O22             5.6144140544      -10.2825286807       13.5457733411  MEMB      6               0.0000000000
       661         6  DOPC      C22             3.8437546080      -10.0709616506       11.8671570078  MEMB      6               0.0000000000
       662         6  DOPC      H2R             2.7694126531      -10.3852163767       11.8694291979  MEMB      6               0.0000000000
       663         6  DOPC      H2S             4.3101660083      -10.5886773132       11.0207136912  MEMB      6               0.0000000000
       664         6  DOPC      C3              2.9160828984      -13.0847399013       14.8760700775  MEMB      6               0.0000000000
       665         6  DOPC      HX              3.0159227575      -13.7970860936       15.7112723177  MEMB      6               0.0000000000
       666         6  DOPC      HY              3.2593345704      -13.6514346629       13.9725971628  MEMB      6               0.0000000000
       667         6  DOPC      O31             1.5481909456      -12.7202019307       14.5979863974  MEMB      6               0.0000000000
       668         6  DOPC      C31             0.8517867764      -12.4749404294       15.6935117686  MEMB      6               0.0000000000
       669         6  DOPC      O32             1.2663147182      -12.6853812007       16.8211639437  MEMB      6               0.0000000000
       670         6  DOPC      C32            -0.5765121137      -12.0303531489       15.3685991660  MEMB      6               0.0000000000
       671         6  DOPC      H2X            -1.0880900123      -11.9497157334       16.3512508059  MEMB      6               0.0000000000
       672         6  DOPC      H2Y            -0.5732490760      -11.0159252702       14.9275379966  MEMB      6               0.0000000000
       673         6  DOPC      C23             3.8967084457       -8.5555761420       11.7717914345  MEMB      6               0.0000000000
       674         6  DOPC      H3R             4.9342021070       -8.1916524704       11.6156385331  MEMB      6               0.0000000000
       675         6  DOPC      H3S             3.5075916970       -8.0934178917       12.7123665202  MEMB      6               0.0000000000
       676         6  DOPC      C24             2.9738810235       -8.2090386158       10.6252260213  MEMB      6               0.0000000000
       677         6  DOPC      H4R             2.0087937863       -8.7255381374       10.8229504387  MEMB      6               0.0000000000
       678         6  DOPC      H4S             3.3814310416       -8.6248697855        9.6772579998  MEMB      6               0.0000000000
       679         6  DOPC      C25             2.6505652454       -6.7361348253       10.4958822225  MEMB      6               0.0000000000
       680         6  DOPC      H5R             3.5712451349       -6.1824937935       10.2136646784  MEMB      6               0.0000000000
       681         6  DOPC      H5S             2.3040631472       -6.3488159947       11.4828705355  MEMB      6               0.0000000000
       682         6  DOPC      C26             1.5291541844       -6.5655639877        9.4657554277  MEMB      6               0.0000000000
       683         6  DOPC      H6R             1.0853691359       -5.5521075196        9.5775509464  MEMB      6               0.0000000000
       684         6  DOPC      H6S             0.7324455662       -7.3203167313        9.6528705968  MEMB      6               0.0000000000
       685         6  DOPC      C27             2.0193837950       -6.7314305065        8.0222514092  MEMB      6               0.0000000000
       686         6  DOPC      H7R             2.3106467423       -7.7757706556        7.7775494638  MEMB      6               0.0000000000
       687         6  DOPC      H7S             2.9533929157       -6.1823139019        7.9612682202  MEMB      6               0.0000000000
       688         6  DOPC      C28             1.1044522790       -6.0795026698        6.9829519762  MEMB      6               0.0000000000
       689         6  DOPC      H8R             1.6261420653       -6.0318384258        6.0015191238  MEMB      6               0.0000000000
       690         6  DOPC      H8S             0.8793898099       -5.0320166963        7.2796392822  MEMB      6               0.0000000000
       691         6  DOPC      C29            -0.1154016870       -6.9426410974        6.9605530392  MEMB      6               0.0000000000
       692         6  DOPC      H9R            -0.7397613527       -6.8740317916        7.8654032454  MEMB      6               0.0000000000
       693         6  DOPC      C210           -0.4339223575       -7.8035976533        5.9853080384  MEMB      6               0.0000000000
       694         6  DOPC      H10R           -1.3388636320       -8.4178590699        6.1132530617  MEMB      6               0.0000000000
       695         6  DOPC      C211            0.3702305126       -8.0534169019        4.7304152873  MEMB      6               0.0000000000
       696         6  DOPC      H11R            0.4422157818       -7.0891077975        4.1775160463  MEMB      6               0.0000000000
       697         6  DOPC      H11S           -0.2092764147       -8.7393145928        4.0751672027  MEMB      6               0.0000000000
       698         6  DOPC      C212            1.8184360571       -8.6218879289        4.8168854518  MEMB      6               0.0000000000
       699         6  DOPC      H12R            2.4843491025       -7.8946561573        5.3217940124  MEMB      6               0.0000000000
       700         6  DOPC      H12S            2.1645785877       -8.7307205995        3.7639003110  MEMB      6               0.0000000000
       701         6  DOPC      C213            1.9351844717       -9.9822240824        5.5323685663  MEMB      6               0.0000000000
       702         6  DOPC      H13R            1.2636292271      -10.6888725467        5.0250222006  MEMB      6               0.0000000000
       703         6  DOPC      H13S            1.5713707867       -9.8211005396        6.5640544305  MEMB      6               0.0000000000
       704         6  DOPC      C214            3.3015046738      -10.6901189659        5.6261086794  MEMB      6               0.0000000000
       705         6  DOPC      H14R            3.1537604217      -11.7664130957        5.8645101713  MEMB      6               0.0000000000
       706         6  DOPC      H14S            3.8511521502      -10.2398035457        6.4891233770  MEMB      6               0.0000000000
       707         6  DOPC      C215            4.1606048859      -10.5753572066        4.3690052698  MEMB      6               0.0000000000
       708         6  DOPC      H15R            5.2086269752      -10.8812542933        4.5621582765  MEMB      6               0.0000000000
       709         6  DOPC      H15S            4.1204270519       -9.5152945151        4.0814379390  MEMB      6               0.0000000000
       710         6  DOPC      C216            3.7913299420      -11.2962803750        3.1047669694  MEMB      6               0.0000000000
       711         6  DOPC      H16R            2.7349086860      -11.0614982231        2.8925077350  MEMB      6               0.0000000000
       712         6  DOPC      H16S            3.9226056018      -12.3773809295        3.2853351547  MEMB      6               0.0000000000
       713         6  DOPC      C217            4.7214447285      -10.9265030556        1.9361111129  MEMB      6               0.0000000000
       714         6  DOPC      H17R            4.2498989203      -11.2642014123        0.9974206500  MEMB      6               0.0000000000
       715         6  DOPC      H17S            5.6443518600      -11.5196100253        2.0516105254  MEMB      6               0.0000000000
       716         6  DOPC      C218            5.1739145713       -9.4759516565        1.7827471734  MEMB      6               0.0000000000
       717         6  DOPC      H18R            4.3118095005       -8.7886887949        1.6838264980  MEMB      6               0.0000000000
       718         6  DOPC      H18S            5.8342043899       -9.3839695415        0.8945555211  MEMB      6               0.0000000000
       719         6  DOPC      H18T            5.7680107307       -9.1652666308        2.6627390284  MEMB      6               0.0000000000
       720         6  DOPC      C33            -1.3484441438      -13.0711015328       14.5117902348  MEMB      6               0.0000000000
       721         6  DOPC      H3X            -2.4398444552      -12.8730553185       14.6020596637  MEMB      6               0.0000000000
       722         6  DOPC      H3Y            -1.1451488229      -14.0796202834       14.9157801775  MEMB      6               0.0000000000
       723         6  DOPC      C34            -1.0051848431      -13.0975928352       13.0163383563  MEMB      6               0.0000000000
       724         6  DOPC      H4X            -1.8289553453      -13.5930128866       12.4534773289  MEMB      6               0.0000000000
       725         6  DOPC      H4Y            -0.0836380849      -13.7040361574       12.8520918136  MEMB      6               0.0000000000
       726         6  DOPC      C35            -0.7651061166      -11.7004999000       12.4545481973  MEMB      6               0.0000000000
       727         6  DOPC      H5X             0.2381214237      -11.3389572604       12.7824686511  MEMB      6               0.0000000000
       728         6  DOPC      H5Y            -1.5253138815      -10.9939073874       12.8559215153  MEMB      6               0.0000000000
       729         6  DOPC      C36            -0.8331910963      -11.6522253978       10.9383646030  MEMB      6               0.0000000000
       730         6  DOPC      H6X            -0.0900982929      -12.3671250581       10.5174391477  MEMB      6               0.0000000000
       731         6  DOPC      H6Y            -1.8432502543      -11.9621467162       10.5901567821  MEMB      6               0.0000000000
       732         6  DOPC      C37            -0.5381015150      -10.2299019734       10.4629843139  MEMB      6               0.0000000000
       733         6  DOPC      H7X            -1.1582619848       -9.5047010938       11.0359330776  MEMB      6               0.0000000000
       734         6  DOPC      H7Y             0.5210902239      -10.0140751003       10.7071901363  MEMB      6               0.0000000000
       735         6  DOPC      C38            -0.7877699701      -10.0317316829        8.9687364079  MEMB      6               0.0000000000
       736         6  DOPC      H8X            -0.5217261520       -8.9865677676        8.7101289322  MEMB      6               0.0000000000
       737         6  DOPC      H8Y            -1.8706035231      -10.1594525736        8.7554830644  MEMB      6               0.0000000000
       738         6  DOPC      C39             0.0924809637      -10.9907327639        8.2186752380  MEMB      6               0.0000000000
       739         6  DOPC      H9X             1.1506833434      -10.9497711710        8.5171490830  MEMB      6               0.0000000000
       740         6  DOPC      C310           -0.2639617692      -11.8475337914        7.2518167136  MEMB      6               0.0000000000
       741         6  DOPC      H10X            0.5062848049      -12.5067203005        6.8223766453  MEMB      6               0.0000000000
       742         6  DOPC      C311           -1.6379644738      -12.0523001967        6.6863716424  MEMB      6               0.0000000000
       743         6  DOPC      H11X           -2.4264221299      -11.5490009847        7.2879461030  MEMB      6               0.0000000000
       744         6  DOPC      H11Y           -1.8456046060      -13.1295799820        6.7876441482  MEMB      6               0.0000000000
       745         6  DOPC      C312           -1.8026089298      -11.6020665543        5.2118768351  MEMB      6               0.0000000000
       746         6  DOPC      H12X           -1.7313277798      -10.4942730175        5.1618835967  MEMB      6               0.0000000000
       747         6  DOPC      H12Y           -2.8327116957      -11.8751163443        4.8923726018  MEMB      6               0.0000000000
       748         6  DOPC      C313           -0.8084939132      -12.2110634503        4.1908083906  MEMB      6               0.0000000000
       749         6  DOPC      H13X           -0.0989591839      -11.4205611572        3.9000926930  MEMB      6               0.0000000000
       750         6  DOPC      H13Y           -0.2466760607      -13.0196896709        4.6858750609  MEMB      6               0.0000000000
       751         6  DOPC      C314           -1.4804952558      -12.7265290500        2.9069006228  MEMB      6               0.0000000000
       752         6  DOPC      H14X           -2.1924790559      -13.5067506610        3.2010492316  MEMB      6               0.0000000000
       753         6  DOPC      H14Y           -2.0452382971      -11.8885138109        2.4450120074  MEMB      6               0.0000000000
       754         6  DOPC      C315           -0.6734565727      -13.4617187405        1.8206677691  MEMB      6               0.0000000000
       755         6  DOPC      H15X           -1.3900053858      -13.5573923307        0.9728422252  MEMB      6               0.0000000000
       756         6  DOPC      H15Y           -0.4642214454      -14.5093561878        2.1206916883  MEMB      6               0.0000000000
       757         6  DOPC      C316            0.6121655544      -12.8040002011        1.3127896333  MEMB      6               0.0000000000
       758         6  DOPC      H16X            1.4700937316      -13.0924186321        1.9515279565  MEMB      6               0.0000000000
       759         6  DOPC      H16Y            0.8426369552      -13.2266025541        0.3103548044  MEMB      6               0.0000000000
       760         6  DOPC      C317            0.5400057827      -11.2772266527        1.2183371291  MEMB      6               0.0000000000
       761         6  DOPC      H17X           -0.5044452641      -10.9509291665        1.0255672916  MEMB      6               0.0000000000
       762         6  DOPC      H17Y            0.8309118650      -10.8493931533        2.2010900905  MEMB      6               0.0000000000
       763         6  DOPC      C318            1.4459285813      -10.6945846068        0.1383176178  MEMB      6               0.0000000000
       764         6  DOPC      H18X            0.9918066482      -10.8359965739       -0.8651094166  MEMB      6               0.0000000000
       765         6  DOPC      H18Y            1.6131973971       -9.6102552099        0.3145742977  MEMB      6               0.0000000000
       766         6  DOPC      H18Z            2.4251773036      -11.2114864231        0.1463713411  MEMB      6               0.0000000000
       767         7  DOPC      N               6.0062944173       -5.5695797785       19.9257749145  MEMB      7               0.0000000000
       768         7  DOPC      C12             6.5102771470       -5.3948509960       18.5005617040  MEMB      7               0.0000000000
       769         7  DOPC      H12A            6.6273620816       -4.3420845265       18.2746671098  MEMB      7               0.0000000000
       770         7  DOPC      H12B            5.7849802489       -5.7773704122       17.7870217677  MEMB      7               0.0000000000
       771         7  DOPC      C13             4.7776107620       -4.7725177890       20.2259869024  MEMB      7               0.0000000000
       772         7  DOPC      H13A            4.0219209723       -4.8511663531       19.4547134205  MEMB      7               0.0000000000
       773         7  DOPC      H13B            4.3101459313       -5.0633648525       21.1593811939  MEMB      7               0.0000000000
       774         7  DOPC      H13C            4.9979935738       -3.7133668227       20.3480728577  MEMB      7               0.0000000000
       775         7  DOPC      C14             7.0669003241       -5.1027339711       20.8641544671  MEMB      7               0.0000000000
       776         7  DOPC      H14A            8.0003421776       -5.6513823229       20.7249209236  MEMB      7               0.0000000000
       777         7  DOPC      H14B            7.3242599412       -4.0613967822       20.6776703281  MEMB      7               0.0000000000
       778         7  DOPC      H14C            6.7826608374       -5.1560654535       21.9070851243  MEMB      7               0.0000000000
       779         7  DOPC      C15             5.7517275133       -7.0358469031       20.1197071705  MEMB      7               0.0000000000
       780         7  DOPC      H15A            4.9921535337       -7.3847457608       19.4227160933  MEMB      7               0.0000000000
       781         7  DOPC      H15B            5.4394324218       -7.2803783641       21.1200104662  MEMB      7               0.0000000000
       782         7  DOPC      H15C            6.6681281943       -7.5873840220       19.9041578662  MEMB      7               0.0000000000
       783         7  DOPC      C11             7.8775010891       -5.9605933120       18.1358950960  MEMB      7               0.0000000000
       784         7  DOPC      H11A            7.9524392731       -7.0155463453       18.5008054514  MEMB      7               0.0000000000
       785         7  DOPC      H11B            8.0198217161       -5.9647544559       17.0294372223  MEMB      7               0.0000000000
       786         7  DOPC      P              10.3043727433       -5.6388848969       18.8152381524  MEMB      7               0.0000000000
       787         7  DOPC      O13            10.1856768387       -7.0991344224       19.0544345002  MEMB      7               0.0000000000
       788         7  DOPC      O14            10.9924594591       -4.8005535036       19.8157306342  MEMB      7               0.0000000000
       789         7  DOPC      O12             8.8281084531       -5.0814616879       18.7160335701  MEMB      7               0.0000000000
       790         7  DOPC      O11            10.7958312581       -5.2301449392       17.3525801323  MEMB      7               0.0000000000
       791         7  DOPC      C1             10.9066758927       -3.7986846873       17.2180222366  MEMB      7               0.0000000000
       792         7  DOPC      HA             11.8867338065       -3.4748840624       17.6368446368  MEMB      7               0.0000000000
       793         7  DOPC      HB             10.1195745640       -3.2209782949       17.7655282486  MEMB      7               0.0000000000
       794         7  DOPC      C2             10.8562966071       -3.3700015535       15.7366448688  MEMB      7               0.0000000000
       795         7  DOPC      HS             11.0938874392       -2.2846612000       15.7053181339  MEMB      7               0.0000000000
       796         7  DOPC      O21             9.5905516898       -3.5547474723       15.1188305506  MEMB      7               0.0000000000
       797         7  DOPC      C21             8.5544025105       -2.9429525582       15.6072736201  MEMB      7               0.0000000000
       798         7  DOPC      O22             8.5179193084       -2.0776834618       16.4560239496  MEMB      7               0.0000000000
       799         7  DOPC      C22             7.3794286074       -3.5361229751       14.8637684259  MEMB      7               0.0000000000
       800         7  DOPC      H2R             6.4561559875       -2.9739706151       15.0819549937  MEMB      7               0.0000000000
       801         7  DOPC      H2S             7.2854297549       -4.5922499415       15.2055689522  MEMB      7               0.0000000000
       802         7  DOPC      C3             11.9005224434       -4.1593098276       14.9063139916  MEMB      7               0.0000000000
       803         7  DOPC      HX             11.4971416624       -5.1790232996       14.7049559834  MEMB      7               0.0000000000
       804         7  DOPC      HY             12.8141730946       -4.2707270120       15.5361526362  MEMB      7               0.0000000000
       805         7  DOPC      O31            12.2066367679       -3.4030552834       13.7249012960  MEMB      7               0.0000000000
       806         7  DOPC      C31            12.0490779811       -3.9135714873       12.5020091624  MEMB      7               0.0000000000
       807         7  DOPC      O32            11.8680767622       -5.0766437536       12.2122269081  MEMB      7               0.0000000000
       808         7  DOPC      C32            12.2638272374       -2.7197226420       11.5278906904  MEMB      7               0.0000000000
       809         7  DOPC      H2X            12.1272333656       -1.7982595994       12.1303809654  MEMB      7               0.0000000000
       810         7  DOPC      H2Y            13.3392163989       -2.7559587197       11.2501820907  MEMB      7               0.0000000000
       811         7  DOPC      C23             7.5423179796       -3.5144856043       13.3389564496  MEMB      7               0.0000000000
       812         7  DOPC      H3R             8.5131899915       -3.9691638883       13.0289179819  MEMB      7               0.0000000000
       813         7  DOPC      H3S             7.5162603004       -2.4668460693       12.9640453442  MEMB      7               0.0000000000
       814         7  DOPC      C24             6.4133612379       -4.3345668441       12.7339993604  MEMB      7               0.0000000000
       815         7  DOPC      H4R             6.2050402882       -3.9164126418       11.7262209803  MEMB      7               0.0000000000
       816         7  DOPC      H4S             5.4944074745       -4.2565317902       13.3546169029  MEMB      7               0.0000000000
       817         7  DOPC      C25             6.8387569728       -5.7892496785       12.5678994561  MEMB      7               0.0000000000
       818         7  DOPC      H5R             5.9540258012       -6.4665607660       12.5645830054  MEMB      7               0.0000000000
       819         7  DOPC      H5S             7.5209095321       -6.0882244063       13.3897676343  MEMB      7               0.0000000000
       820         7  DOPC      C26             7.5618183058       -5.8953907519       11.2393857054  MEMB      7               0.0000000000
       821         7  DOPC      H6R             8.1330388814       -4.9631943483       11.0261515682  MEMB      7               0.0000000000
       822         7  DOPC      H6S             6.7503842365       -6.0257849241       10.5179921199  MEMB      7               0.0000000000
       823         7  DOPC      C27             8.4621624545       -7.0886833518       11.0214017499  MEMB      7               0.0000000000
       824         7  DOPC      H7R             7.9139450449       -8.0073743022       11.3252586738  MEMB      7               0.0000000000
       825         7  DOPC      H7S             9.3507726912       -6.9656815694       11.6767586847  MEMB      7               0.0000000000
       826         7  DOPC      C28             8.8784138032       -7.1280948643        9.5447574566  MEMB      7               0.0000000000
       827         7  DOPC      H8R             9.1885308994       -6.1258201204        9.2018586660  MEMB      7               0.0000000000
       828         7  DOPC      H8S             7.9986054288       -7.4495034339        8.9435385117  MEMB      7               0.0000000000
       829         7  DOPC      C29             9.9847056013       -8.1036774336        9.3763173855  MEMB      7               0.0000000000
       830         7  DOPC      H9R             9.6962918519       -9.0399751383        9.8090295283  MEMB      7               0.0000000000
       831         7  DOPC      C210           11.2644203421       -7.9596194673        9.0298856154  MEMB      7               0.0000000000
       832         7  DOPC      H10R           11.9204716863       -8.8420416060        9.0443973755  MEMB      7               0.0000000000
       833         7  DOPC      C211           11.9406147846       -6.6741749519        8.7079886532  MEMB      7               0.0000000000
       834         7  DOPC      H11R           13.0378564421       -6.8186023179        8.8075824302  MEMB      7               0.0000000000
       835         7  DOPC      H11S           11.6717764015       -5.9467777889        9.5091752967  MEMB      7               0.0000000000
       836         7  DOPC      C212           11.6530596944       -6.0095907702        7.3483570744  MEMB      7               0.0000000000
       837         7  DOPC      H12R           10.5592137157       -5.9369968727        7.1675518380  MEMB      7               0.0000000000
       838         7  DOPC      H12S           12.0872582968       -6.5864535953        6.5151997902  MEMB      7               0.0000000000
       839         7  DOPC      C213           12.2658982620       -4.6146334742        7.4646710723  MEMB      7               0.0000000000
       840         7  DOPC      H13R           13.3166826095       -4.6598381826        7.8060444471  MEMB      7               0.0000000000
       841         7  DOPC      H13S           11.7169594731       -4.2218429265        8.3246876478  MEMB      7               0.0000000000
       842         7  DOPC      C214           12.1262850581       -3.5817746301        6.3519646378  MEMB      7               0.0000000000
       843         7  DOPC      H14R           12.9245807182       -2.8170271885        6.5242020046  MEMB      7               0.0000000000
       844         7  DOPC      H14S           11.1579363205       -3.0619974901        6.4457033837  MEMB      7               0.0000000000
       845         7  DOPC      C215           12.2024317642       -4.0722634644        4.9141978830  MEMB      7               0.0000000000
       846         7  DOPC      H15R           11.3661994022       -4.7665514896        4.6832189350  MEMB      7               0.0000000000
       847         7  DOPC      H15S           13.1486409750       -4.6220366175        4.7585340226  MEMB      7               0.0000000000
       848         7  DOPC      C216           12.1818016096       -2.8557254175        3.9876200857  MEMB      7               0.0000000000
       849         7  DOPC      H16R           12.4758294339       -1.9734682245        4.6001388708  MEMB      7               0.0000000000
       850         7  DOPC      H16S           11.1583010593       -2.6602405714        3.6015420401  MEMB      7               0.0000000000
       851         7  DOPC      C217           13.2065399495       -2.9523628461        2.8640330229  MEMB      7               0.0000000000
       852         7  DOPC      H17R           14.0851695772       -3.5437808482        3.2025580966  MEMB      7               0.0000000000
       853         7  DOPC      H17S           13.5998598295       -1.9375002823        2.6355723266  MEMB      7               0.0000000000
       854         7  DOPC      C218           12.6202579750       -3.5393945933        1.5926376381  MEMB      7               0.0000000000
       855         7  DOPC      H18R           13.3653634247       -3.4522289817        0.7743610613  MEMB      7               0.0000000000
       856         7  DOPC      H18S           11.7017505987       -2.9852222246        1.2983634876  MEMB      7               0.0000000000
       857         7  DOPC      H18T           12.3630964785       -4.6100190717        1.7389746620  MEMB      7               0.0000000000
       858         7  DOPC      C33            11.4010790004       -2.5456465650       10.2198267125  MEMB      7               0.0000000000
       859         7  DOPC      H3X            12.0953243032       -2.7705183166        9.3950196381  MEMB      7               0.0000000000
       860         7  DOPC      H3Y            11.1904593014       -1.4617755192       10.0903759856  MEMB      7               0.0000000000
       861         7  DOPC      C34            10.0483169809       -3.3094696357       10.1516867335  MEMB      7               0.0000000000
       862         7  DOPC      H4X             9.3558723386       -2.8185124911       10.8664678927  MEMB      7               0.0000000000
       863         7  DOPC      H4Y            10.2241700371       -4.3428203362       10.5310656889  MEMB      7               0.0000000000
       864         7  DOPC      C35             9.2610129337       -3.5278014753        8.8069590475  MEMB      7               0.0000000000
       865         7  DOPC      H5X             8.2432163861       -3.8725580060        9.1024384802  MEMB      7               0.0000000000
       866         7  DOPC      H5Y             9.7026532675       -4.3660642764        8.2442881726  MEMB      7               0.0000000000
       867         7  DOPC      C36             9.0972795927       -2.3962309526        7.7786608488  MEMB      7               0.0000000000
       868         7  DOPC      H6X             8.4829187430       -1.6268783115        8.2511393346  MEMB      7               0.0000000000
       869         7  DOPC      H6Y            10.0798671530       -1.9166721061        7.6109184182  MEMB      7               0.0000000000
       870         7  DOPC      C37             8.4109148757       -2.7723161927        6.4115118400  MEMB      7               0.0000000000
       871         7  DOPC      H7X             8.5441798504       -1.9006840119        5.7409121593  MEMB      7               0.0000000000
       872         7  DOPC      H7Y             9.0284360705       -3.5280670244        5.9008069645  MEMB      7               0.0000000000
       873         7  DOPC      C38             6.8244145763       -3.1066066395        6.5443530562  MEMB      7               0.0000000000
       874         7  DOPC      H8X             6.4606337570       -2.3302880243        7.1885199236  MEMB      7               0.0000000000
       875         7  DOPC      H8Y             6.8940929387       -3.7592975015        7.4308460232  MEMB      7               0.0000000000
       876         7  DOPC      C39             5.4773571130       -3.2435062310        5.6715197996  MEMB      7               0.0000000000
       877         7  DOPC      H9X             5.0786554795       -2.2438394100        5.4504810968  MEMB      7               0.0000000000
       878         7  DOPC      C310            4.6603234325       -4.2271908542        5.0904340886  MEMB      7               0.0000000000
       879         7  DOPC      H10X            3.7185097899       -3.8080820100        4.6759424622  MEMB      7               0.0000000000
       880         7  DOPC      C311            4.5117474475       -5.7885149411        5.0695166412  MEMB      7               0.0000000000
       881         7  DOPC      H11X            3.7604916251       -5.7747157323        4.2397742371  MEMB      7               0.0000000000
       882         7  DOPC      H11Y            3.8934303036       -6.1564304486        5.8971153951  MEMB      7               0.0000000000
       883         7  DOPC      C312            5.2867490841       -7.1004632799        4.4431383617  MEMB      7               0.0000000000
       884         7  DOPC      H12X            5.7092416254       -6.9230086461        3.4671216263  MEMB      7               0.0000000000
       885         7  DOPC      H12Y            4.3496756080       -7.6626875698        4.2258934217  MEMB      7               0.0000000000
       886         7  DOPC      C313            6.3239283998       -8.1662667592        5.0381061687  MEMB      7               0.0000000000
       887         7  DOPC      H13X            6.4575391653       -8.3184382761        6.1049690955  MEMB      7               0.0000000000
       888         7  DOPC      H13Y            5.7499390202       -9.0754825396        4.9863896414  MEMB      7               0.0000000000
       889         7  DOPC      C314            7.7623397884       -8.5191635733        4.3887589195  MEMB      7               0.0000000000
       890         7  DOPC      H14X            8.0980808721       -9.1451668306        5.2473470594  MEMB      7               0.0000000000
       891         7  DOPC      H14Y            7.6493699411       -9.1569506348        3.4963280830  MEMB      7               0.0000000000
       892         7  DOPC      C315            9.1578820635       -7.7594467598        4.4518678729  MEMB      7               0.0000000000
       893         7  DOPC      H15X            9.6380707896       -7.9072509055        5.4516476791  MEMB      7               0.0000000000
       894         7  DOPC      H15Y            9.0817522364       -6.6702667239        4.4375034506  MEMB      7               0.0000000000
       895         7  DOPC      C316           10.1840522702       -7.8929734080        3.3092790471  MEMB      7               0.0000000000
       896         7  DOPC      H16X           10.5949303900       -6.8775565540        3.0832632967  MEMB      7               0.0000000000
       897         7  DOPC      H16Y           11.0305884717       -8.4849833881        3.7067378277  MEMB      7               0.0000000000
       898         7  DOPC      C317            9.7574125637       -8.5939996617        2.0149080314  MEMB      7               0.0000000000
       899         7  DOPC      H17X           10.6864320264       -8.7550889175        1.4259958505  MEMB      7               0.0000000000
       900         7  DOPC      H17Y            9.3801965918       -9.5833715444        2.3213844556  MEMB      7               0.0000000000
       901         7  DOPC      C318            8.7350624805       -7.9631544118        1.0640022837  MEMB      7               0.0000000000
       902         7  DOPC      H18X            8.5769089315       -8.6569898870        0.2179683420  MEMB      7               0.0000000000
       903         7  DOPC      H18Y            7.7398473036       -7.8325279697        1.5331795066  MEMB      7               0.0000000000
       904         7  DOPC      H18Z            9.0893655787       -6.9913615448        0.6592923871  MEMB      7               0.0000000000
       905         8  DOPC      N             -13.0053023440       -0.5895816585       20.9263412382  MEMB      8               0.0000000000
       906         8  DOPC      C12           -11.6566982791       -1.2508110995       20.6684687904  MEMB      8               0.0000000000
       907         8  DOPC      H12A          -11.7690255146       -2.3233915261       20.7925001655  MEMB      8               0.0000000000
       908         8  DOPC      H12B          -10.9353646675       -0.9323414466       21.4114296161  MEMB      8               0.0000000000
       909         8  DOPC      C13           -14.0890084165       -1.4643097476       20.3906613019  MEMB      8               0.0000000000
       910         8  DOPC      H13A          -15.0675709572       -1.0302833363       20.5249802515  MEMB      8               0.0000000000
       911         8  DOPC      H13B          -13.8932553306       -1.5943136396       19.3333485905  MEMB      8               0.0000000000
       912         8  DOPC      H13C          -14.0825581411       -2.4462336012       20.8470438697  MEMB      8               0.0000000000
       913         8  DOPC      C14           -13.0691251966        0.7580478115       20.2730185754  MEMB      8               0.0000000000
       914         8  DOPC      H14A          -12.3432348474        1.4261426557       20.7267795707  MEMB      8               0.0000000000
       915         8  DOPC      H14B          -12.8141949713        0.6756206107       19.2100320631  MEMB      8               0.0000000000
       916         8  DOPC      H14C          -14.0470818303        1.2178998966       20.3595482899  MEMB      8               0.0000000000
       917         8  DOPC      C15           -13.2496068491       -0.3981791357       22.3723233502  MEMB      8               0.0000000000
       918         8  DOPC      H15A          -14.0966982813        0.2619390568       22.5145684292  MEMB      8               0.0000000000
       919         8  DOPC      H15B          -12.4114694342        0.0935342526       22.8398607437  MEMB      8               0.0000000000
       920         8  DOPC      H15C          -13.4430458533       -1.3443463383       22.8575564851  MEMB      8               0.0000000000
       921         8  DOPC      C11           -10.9845490707       -1.0150761989       19.2957621110  MEMB      8               0.0000000000
       922         8  DOPC      H11A          -10.8488467090        0.0851233922       19.1440230391  MEMB      8               0.0000000000
       923         8  DOPC      H11B           -9.9591092122       -1.4349536146       19.3097344517  MEMB      8               0.0000000000
       924         8  DOPC      P             -11.9016417577       -0.8763278128       16.8911206768  MEMB      8               0.0000000000
       925         8  DOPC      O13           -10.6295274609       -0.8537398992       16.1466956238  MEMB      8               0.0000000000
       926         8  DOPC      O14           -12.5169814675        0.4103811519       17.2635843493  MEMB      8               0.0000000000
       927         8  DOPC      O12           -11.7203886829       -1.6587017293       18.2597701176  MEMB      8               0.0000000000
       928         8  DOPC      O11           -12.9549634031       -1.7253598253       16.0883975740  MEMB      8               0.0000000000
       929         8  DOPC      C1            -13.9687453841       -2.4438676717       16.7961047531  MEMB      8               0.0000000000
       930         8  DOPC      HA            -14.1751119812       -2.0389144400       17.8036898438  MEMB      8               0.0000000000
       931         8  DOPC      HB            -13.6111051950       -3.4834111728       16.9449559026  MEMB      8               0.0000000000
       932         8  DOPC      C2            -15.3532153189       -2.4299129579       16.0800637342  MEMB      8               0.0000000000
       933         8  DOPC      HS            -16.0445249684       -3.0195374341       16.7189457079  MEMB      8               0.0000000000
       934         8  DOPC      O21           -15.2819400202       -3.0228035168       14.7921235483  MEMB      8               0.0000000000
       935         8  DOPC      C21           -14.8828494770       -4.2538241292       14.7364932060  MEMB      8               0.0000000000
       936         8  DOPC      O22           -14.6919880252       -5.0370114703       15.6504810926  MEMB      8               0.0000000000
       937         8  DOPC      C22           -14.6403519605       -4.5482981211       13.2581190886  MEMB      8               0.0000000000
       938         8  DOPC      H2R           -15.0872611565       -3.7466011750       12.6392612968  MEMB      8               0.0000000000
       939         8  DOPC      H2S           -15.1763813034       -5.4979825372       13.0388357187  MEMB      8               0.0000000000
       940         8  DOPC      C3            -16.0029079999       -1.0167497039       15.9059312221  MEMB      8               0.0000000000
       941         8  DOPC      HX            -16.1879804508       -0.6269667333       16.9289216196  MEMB      8               0.0000000000
       942         8  DOPC      HY            -16.9965537203       -1.1546086443       15.4167561641  MEMB      8               0.0000000000
       943         8  DOPC      O31           -15.1794111758       -0.0613990754       15.1970502667  MEMB      8               0.0000000000
       944         8  DOPC      C31           -15.0852269225       -0.2262842859       13.8797808485  MEMB      8               0.0000000000
       945         8  DOPC      O32           -15.8840442503       -0.8149351882       13.1726558803  MEMB      8               0.0000000000
       946         8  DOPC      C32           -13.7465752300        0.3426592169       13.3811232804  MEMB      8               0.0000000000
       947         8  DOPC      H2X           -13.0093444618        0.2772789564       14.2017732654  MEMB      8               0.0000000000
       948         8  DOPC      H2Y           -13.4258866639       -0.3417448539       12.5970982800  MEMB      8               0.0000000000
       949         8  DOPC      C23           -13.1474705763       -4.7315937250       12.9304882737  MEMB      8               0.0000000000
       950         8  DOPC      H3R           -13.0119360088       -5.0525843245       11.8737911750  MEMB      8               0.0000000000
       951         8  DOPC      H3S           -12.7689994779       -5.5100778240       13.6121532142  MEMB      8               0.0000000000
       952         8  DOPC      C24           -12.1250282943       -3.6790115806       13.2954358655  MEMB      8               0.0000000000
       953         8  DOPC      H4R           -11.1593946363       -4.2263518695       13.2191585495  MEMB      8               0.0000000000
       954         8  DOPC      H4S           -12.2369075076       -3.3329793912       14.3465989175  MEMB      8               0.0000000000
       955         8  DOPC      C25           -12.0039133567       -2.5263639041       12.3279299551  MEMB      8               0.0000000000
       956         8  DOPC      H5R           -13.0184314438       -2.1068518578       12.2495204167  MEMB      8               0.0000000000
       957         8  DOPC      H5S           -11.7644285868       -2.9339416104       11.3274246853  MEMB      8               0.0000000000
       958         8  DOPC      C26           -10.9238685010       -1.5565211014       12.8514961662  MEMB      8               0.0000000000
       959         8  DOPC      H6R           -10.0476765303       -2.1568634004       13.1764511034  MEMB      8               0.0000000000
       960         8  DOPC      H6S           -11.3013966384       -1.0701653328       13.7771032379  MEMB      8               0.0000000000
       961         8  DOPC      C27           -10.3957603479       -0.4870363556       11.8797948716  MEMB      8               0.0000000000
       962         8  DOPC      H7R            -9.6194226741        0.1108578013       12.4155855527  MEMB      8               0.0000000000
       963         8  DOPC      H7S           -11.2228547170        0.2060186162       11.6376940508  MEMB      8               0.0000000000
       964         8  DOPC      C28            -9.7562767352       -1.1143670545       10.6229716404  MEMB      8               0.0000000000
       965         8  DOPC      H8R           -10.3288564309       -2.0231180088       10.3679205576  MEMB      8               0.0000000000
       966         8  DOPC      H8S            -8.7533609131       -1.4808704981       10.9378762050  MEMB      8               0.0000000000
       967         8  DOPC      C29            -9.6516609111       -0.2476900731        9.3927171551  MEMB      8               0.0000000000
       968         8  DOPC      H9R            -9.0232460569        0.6489578503        9.5109013309  MEMB      8               0.0000000000
       969         8  DOPC      C210          -10.2530028832       -0.4744841439        8.2025619462  MEMB      8               0.0000000000
       970         8  DOPC      H10R          -10.0731104052        0.2347614503        7.3806690256  MEMB      8               0.0000000000
       971         8  DOPC      C211          -11.1591754283       -1.6338560408        7.8378059071  MEMB      8               0.0000000000
       972         8  DOPC      H11R          -11.9923954134       -1.7195488947        8.5687259846  MEMB      8               0.0000000000
       973         8  DOPC      H11S          -10.6058664022       -2.5971778508        7.8886386242  MEMB      8               0.0000000000
       974         8  DOPC      C212          -11.7617574268       -1.4970974337        6.4178764361  MEMB      8               0.0000000000
       975         8  DOPC      H12R          -10.9517910613       -1.2374484583        5.6983695336  MEMB      8               0.0000000000
       976         8  DOPC      H12S          -12.5071175788       -0.6733824895        6.3849519733  MEMB      8               0.0000000000
       977         8  DOPC      C213          -12.4330641921       -2.7786574277        5.8912279689  MEMB      8               0.0000000000
       978         8  DOPC      H13R          -13.3974925713       -2.9418778020        6.4030747648  MEMB      8               0.0000000000
       979         8  DOPC      H13S          -11.7957228211       -3.6566188175        6.1326621027  MEMB      8               0.0000000000
       980         8  DOPC      C214          -12.6509896943       -2.7226071904        4.3698055593  MEMB      8               0.0000000000
       981         8  DOPC      H14R          -11.7052347978       -2.4069895420        3.8791881630  MEMB      8               0.0000000000
       982         8  DOPC      H14S          -13.4179204118       -1.9472260221        4.1486179673  MEMB      8               0.0000000000
       983         8  DOPC      C215          -13.0794336042       -4.0677305986        3.7646691238  MEMB      8               0.0000000000
       984         8  DOPC      H15R          -13.9340564428       -4.4553617008        4.3609510342  MEMB      8               0.0000000000
       985         8  DOPC      H15S          -12.2552066044       -4.8095008366        3.8512167696  MEMB      8               0.0000000000
       986         8  DOPC      C216          -13.5168662684       -3.9456881353        2.2969181634  MEMB      8               0.0000000000
       987         8  DOPC      H16R          -14.0442796658       -2.9769237600        2.1464955220  MEMB      8               0.0000000000
       988         8  DOPC      H16S          -14.2445177622       -4.7574932705        2.0681137795  MEMB      8               0.0000000000
       989         8  DOPC      C217          -12.3531236215       -4.0619050959        1.3041968015  MEMB      8               0.0000000000
       990         8  DOPC      H17R          -11.9194655505       -5.0861936741        1.3764857872  MEMB      8               0.0000000000
       991         8  DOPC      H17S          -11.5517454046       -3.3429095114        1.5858550040  MEMB      8               0.0000000000
       992         8  DOPC      C218          -12.7770079920       -3.7950328408       -0.1400896816  MEMB      8               0.0000000000
       993         8  DOPC      H18R          -11.9284293992       -3.9772384074       -0.8341468565  MEMB      8               0.0000000000
       994         8  DOPC      H18S          -13.1092639079       -2.7435954025       -0.2673204685  MEMB      8               0.0000000000
       995         8  DOPC      H18T          -13.6189477010       -4.4619821840       -0.4260181123  MEMB      8               0.0000000000
       996         8  DOPC      C33           -13.7228258882        1.7256007706       12.6889681799  MEMB      8               0.0000000000
       997         8  DOPC      H3X           -12.6706382144        2.0834125521       12.6602156947  MEMB      8               0.0000000000
       998         8  DOPC      H3Y           -14.2863617075        2.4578061011       13.2963434856  MEMB      8               0.0000000000
       999         8  DOPC      C34           -14.2467500591        1.6689829566       11.2414593457  MEMB      8               0.0000000000
      1000         8  DOPC      H4X           -14.3610647858        2.7104311792       10.8639687407  MEMB      8               0.0000000000
      1001         8  DOPC      H4Y           -15.2676365793        1.2276484600       11.2911731893  MEMB      8               0.0000000000
      1002         8  DOPC      C35           -13.3573807547        0.8697153780       10.2574859242  MEMB      8               0.0000000000
      1003         8  DOPC      H5X           -13.0966635961       -0.1198896446       10.6794791298  MEMB      8               0.0000000000
      1004         8  DOPC      H5Y           -12.4081110570        1.4252972588       10.1029404117  MEMB      8               0.0000000000
      1005         8  DOPC      C36           -13.9701007887        0.5643788906        8.8844884633  MEMB      8               0.0000000000
      1006         8  DOPC      H6X           -14.2265089937        1.5318187907        8.4119117755  MEMB      8               0.0000000000
      1007         8  DOPC      H6Y           -13.2079386541        0.0871033377        8.2374285240  MEMB      8               0.0000000000
      1008         8  DOPC      C37           -15.1880826682       -0.3706936182        8.9426639425  MEMB      8               0.0000000000
      1009         8  DOPC      H7X           -15.8904049224        0.0153313093        9.7144684993  MEMB      8               0.0000000000
      1010         8  DOPC      H7Y           -15.7227774987       -0.3443696039        7.9634670556  MEMB      8               0.0000000000
      1011         8  DOPC      C38           -14.8377152955       -1.8294214483        9.2689042823  MEMB      8               0.0000000000
      1012         8  DOPC      H8X           -14.2173080979       -1.8831559084       10.1861301967  MEMB      8               0.0000000000
      1013         8  DOPC      H8Y           -14.2174426209       -2.2425449300        8.4442971182  MEMB      8               0.0000000000
      1014         8  DOPC      C39           -16.1381377222       -2.5582758919        9.4748551478  MEMB      8               0.0000000000
      1015         8  DOPC      H9X           -16.6160079364       -2.3606411060       10.4499129271  MEMB      8               0.0000000000
      1016         8  DOPC      C310          -16.7614038946       -3.3317239811        8.5706986617  MEMB      8               0.0000000000
      1017         8  DOPC      H10X          -17.7285856944       -3.7788486194        8.8412483454  MEMB      8               0.0000000000
      1018         8  DOPC      C311          -16.2760748640       -3.6248049423        7.1738545939  MEMB      8               0.0000000000
      1019         8  DOPC      H11X          -16.1169924053       -4.7149346825        7.0630681492  MEMB      8               0.0000000000
      1020         8  DOPC      H11Y          -15.2885368203       -3.1719216168        6.9691937839  MEMB      8               0.0000000000
      1021         8  DOPC      C312          -17.2048129606       -3.1488187456        6.0435908078  MEMB      8               0.0000000000
      1022         8  DOPC      H12X          -17.1964984728       -2.0366482513        5.9981248814  MEMB      8               0.0000000000
      1023         8  DOPC      H12Y          -18.2469547383       -3.4837286042        6.2408122352  MEMB      8               0.0000000000
      1024         8  DOPC      C313          -16.7335486062       -3.7203507760        4.6991237246  MEMB      8               0.0000000000
      1025         8  DOPC      H13X          -15.7242390147       -3.3203791105        4.4654638277  MEMB      8               0.0000000000
      1026         8  DOPC      H13Y          -16.6284670223       -4.8212884315        4.8070324015  MEMB      8               0.0000000000
      1027         8  DOPC      C314          -17.6756177751       -3.4562624328        3.5246848310  MEMB      8               0.0000000000
      1028         8  DOPC      H14X          -17.4501324178       -4.1985838793        2.7255378186  MEMB      8               0.0000000000
      1029         8  DOPC      H14Y          -18.7309624582       -3.6162671102        3.8401705795  MEMB      8               0.0000000000
      1030         8  DOPC      C315          -17.5082390455       -2.0590058414        2.9217684126  MEMB      8               0.0000000000
      1031         8  DOPC      H15X          -16.4475863969       -1.8823820795        2.6341156703  MEMB      8               0.0000000000
      1032         8  DOPC      H15Y          -17.7757915136       -1.3036765133        3.6949065248  MEMB      8               0.0000000000
      1033         8  DOPC      C316          -18.4052504271       -1.8956845712        1.6927263282  MEMB      8               0.0000000000
      1034         8  DOPC      H16X          -17.9851251733       -2.4352877946        0.8169678119  MEMB      8               0.0000000000
      1035         8  DOPC      H16Y          -19.3828540948       -2.3614126540        1.9362195910  MEMB      8               0.0000000000
      1036         8  DOPC      C317          -18.7033459812       -0.4428872046        1.3422847437  MEMB      8               0.0000000000
      1037         8  DOPC      H17X          -18.6638334431        0.1420690970        2.2840924092  MEMB      8               0.0000000000
      1038         8  DOPC      H17Y          -17.9142009641       -0.0286222662        0.6793629378  MEMB      8               0.0000000000
      1039         8  DOPC      C318          -20.0846320452       -0.2844084615        0.7094728461  MEMB      8               0.0000000000
      1040         8  DOPC      H18X          -20.1933716115       -0.9153511054       -0.1988195298  MEMB      8               0.0000000000
      1041         8  DOPC      H18Y          -20.8754605162       -0.5523236171        1.4371291519  MEMB      8               0.0000000000
      1042         8  DOPC      H18Z          -20.2604085574        0.7646461259        0.4092539922  MEMB      8               0.0000000000
      1043         9  DOPE      N              -2.1803040208       13.1129351404       17.2358854663  MEMB      9               0.0000000000
      1044         9  DOPE      HN1            -1.3632663393       13.1209706916       17.8849528996  MEMB      9               0.0000000000
      1045         9  DOPE      HN2            -2.1826359778       12.2034653522       16.7288921830  MEMB      9               0.0000000000
      1046         9  DOPE      HN3            -1.9921103658       13.8791143598       16.5572294311  MEMB      9               0.0000000000
      1047         9  DOPE      C12            -3.5066519348       13.3129584815       17.9598471658  MEMB      9               0.0000000000
      1048         9  DOPE      H12A           -4.3169324833       13.2793050993       17.2022869164  MEMB      9               0.0000000000
      1049         9  DOPE      H12B           -3.4904526339       14.3154743934       18.4347606512  MEMB      9               0.0000000000
      1050         9  DOPE      C11            -3.7484309849       12.2230241300       19.0253094633  MEMB      9               0.0000000000
      1051         9  DOPE      H11A           -2.8953826967       12.2505251796       19.7429231880  MEMB      9               0.0000000000
      1052         9  DOPE      H11B           -3.7227701424       11.2247441428       18.5250805360  MEMB      9               0.0000000000
      1053         9  DOPE      P              -6.2644437416       11.5514011924       19.4684820528  MEMB      9               0.0000000000
      1054         9  DOPE      O13            -7.2999309619       11.8036321880       20.4888868658  MEMB      9               0.0000000000
      1055         9  DOPE      O14            -5.8197887260       10.1579991280       19.2587441688  MEMB      9               0.0000000000
      1056         9  DOPE      O11            -6.7088708880       12.1990728647       18.0964121310  MEMB      9               0.0000000000
      1057         9  DOPE      O12            -4.9646592535       12.4371232659       19.7613545342  MEMB      9               0.0000000000
      1058         9  DOPE      C1             -7.7694421516       11.6274608883       17.3337498014  MEMB      9               0.0000000000
      1059         9  DOPE      HA             -8.3752113323       12.4481667254       16.9028577910  MEMB      9               0.0000000000
      1060         9  DOPE      HB             -8.4569231475       10.9914371455       17.9460897623  MEMB      9               0.0000000000
      1061         9  DOPE      C2             -7.2224489125       10.8016615337       16.1449874717  MEMB      9               0.0000000000
      1062         9  DOPE      HS             -6.6369167275        9.9692151405       16.6091719351  MEMB      9               0.0000000000
      1063         9  DOPE      O21            -6.3987478409       11.6515167957       15.3075227641  MEMB      9               0.0000000000
      1064         9  DOPE      C21            -5.4762108242       10.9518606432       14.6621867819  MEMB      9               0.0000000000
      1065         9  DOPE      O22            -5.3535705476        9.7432013415       14.7074645575  MEMB      9               0.0000000000
      1066         9  DOPE      C22            -4.4736147539       11.8960779605       14.0024715964  MEMB      9               0.0000000000
      1067         9  DOPE      H2R            -4.2853635881       12.7480002196       14.6815662394  MEMB      9               0.0000000000
      1068         9  DOPE      H2S            -4.9369347323       12.2813524450       13.0766294972  MEMB      9               0.0000000000
      1069         9  DOPE      C3             -8.3901307779       10.2028160464       15.3204946441  MEMB      9               0.0000000000
      1070         9  DOPE      HX             -8.9948924373        9.5877548747       16.0205747145  MEMB      9               0.0000000000
      1071         9  DOPE      HY             -7.9834959987        9.5129767811       14.5421489803  MEMB      9               0.0000000000
      1072         9  DOPE      O31            -9.2114677529       11.2774514116       14.8082155435  MEMB      9               0.0000000000
      1073         9  DOPE      C31            -9.1721385547       11.4663549092       13.4945984097  MEMB      9               0.0000000000
      1074         9  DOPE      O32            -8.7758920031       10.6644642279       12.6715027676  MEMB      9               0.0000000000
      1075         9  DOPE      C32            -9.6415159674       12.8939731943       13.1847227334  MEMB      9               0.0000000000
      1076         9  DOPE      H2X           -10.7452450522       12.8801668682       13.0872753980  MEMB      9               0.0000000000
      1077         9  DOPE      H2Y            -9.3518651492       13.5448371317       14.0358312217  MEMB      9               0.0000000000
      1078         9  DOPE      C23            -3.1684727745       11.1370499327       13.6710420723  MEMB      9               0.0000000000
      1079         9  DOPE      H3R            -2.9076685396       10.4458486225       14.5072378655  MEMB      9               0.0000000000
      1080         9  DOPE      H3S            -2.3201409823       11.8440218544       13.5372512366  MEMB      9               0.0000000000
      1081         9  DOPE      C24            -3.3225362665       10.3286921190       12.3752365493  MEMB      9               0.0000000000
      1082         9  DOPE      H4R            -4.3862032036       10.0214015641       12.2528077899  MEMB      9               0.0000000000
      1083         9  DOPE      H4S            -2.7323651251        9.3883878159       12.4399856207  MEMB      9               0.0000000000
      1084         9  DOPE      C25            -2.8745661559       11.1140789241       11.1382101022  MEMB      9               0.0000000000
      1085         9  DOPE      H5R            -1.7624541344       11.1017239437       11.0982626580  MEMB      9               0.0000000000
      1086         9  DOPE      H5S            -3.1795391016       12.1776043850       11.2202401145  MEMB      9               0.0000000000
      1087         9  DOPE      C26            -3.4528184364       10.5452077250        9.8354040330  MEMB      9               0.0000000000
      1088         9  DOPE      H6R            -3.3766720347        9.4400475892        9.8514965340  MEMB      9               0.0000000000
      1089         9  DOPE      H6S            -2.8269174747       10.9308517606        9.0017720144  MEMB      9               0.0000000000
      1090         9  DOPE      C27            -4.9174508364       10.9390251551        9.5895335609  MEMB      9               0.0000000000
      1091         9  DOPE      H7R            -4.9413260314       11.8282429574        8.9271622125  MEMB      9               0.0000000000
      1092         9  DOPE      H7S            -5.3636982946       11.2275941298       10.5686255548  MEMB      9               0.0000000000
      1093         9  DOPE      C28            -5.7940078955        9.8626309606        8.9241445406  MEMB      9               0.0000000000
      1094         9  DOPE      H8R            -5.6742361500        8.8990617174        9.4648839914  MEMB      9               0.0000000000
      1095         9  DOPE      H8S            -5.4446096491        9.7056346598        7.8796539685  MEMB      9               0.0000000000
      1096         9  DOPE      C29            -7.2317786852       10.3190674733        8.9681300825  MEMB      9               0.0000000000
      1097         9  DOPE      H9R            -7.8138943313        9.9536429861        9.8300460431  MEMB      9               0.0000000000
      1098         9  DOPE      C210           -7.8245617085       11.1596558127        8.1014063956  MEMB      9               0.0000000000
      1099         9  DOPE      H10R           -8.8817051238       11.4195733807        8.2629107358  MEMB      9               0.0000000000
      1100         9  DOPE      C211           -7.1911274238       11.8197058567        6.9012512573  MEMB      9               0.0000000000
      1101         9  DOPE      H11R           -6.5010336569       11.1235076023        6.3736992806  MEMB      9               0.0000000000
      1102         9  DOPE      H11S           -6.5737823080       12.6915315816        7.2174274597  MEMB      9               0.0000000000
      1103         9  DOPE      C212           -8.2682968508       12.3248527463        5.9137768177  MEMB      9               0.0000000000
      1104         9  DOPE      H12R           -7.7463810746       12.7052917032        5.0042880511  MEMB      9               0.0000000000
      1105         9  DOPE      H12S           -8.8061855495       13.1856551902        6.3688210551  MEMB      9               0.0000000000
      1106         9  DOPE      C213           -9.3022204632       11.2633985893        5.4822623799  MEMB      9               0.0000000000
      1107         9  DOPE      H13R          -10.0782390205       11.7450811730        4.8448709449  MEMB      9               0.0000000000
      1108         9  DOPE      H13S           -9.8214456889       10.8215622770        6.3571587935  MEMB      9               0.0000000000
      1109         9  DOPE      C214           -8.6470075833       10.1563388965        4.6611882378  MEMB      9               0.0000000000
      1110         9  DOPE      H14R           -7.7403153567        9.7743663885        5.1808279566  MEMB      9               0.0000000000
      1111         9  DOPE      H14S           -8.3253924840       10.6571473262        3.7260274751  MEMB      9               0.0000000000
      1112         9  DOPE      C215           -9.5440747986        8.9593160842        4.3205899704  MEMB      9               0.0000000000
      1113         9  DOPE      H15R          -10.4197438840        9.3020010283        3.7280637462  MEMB      9               0.0000000000
      1114         9  DOPE      H15S           -9.9143347866        8.4995773291        5.2599286421  MEMB      9               0.0000000000
      1115         9  DOPE      C216           -8.7527427652        7.9061238840        3.5414274710  MEMB      9               0.0000000000
      1116         9  DOPE      H16R           -7.8803780361        7.5877160549        4.1575217958  MEMB      9               0.0000000000
      1117         9  DOPE      H16S           -8.3594884234        8.3472983039        2.6034976148  MEMB      9               0.0000000000
      1118         9  DOPE      C217           -9.5139266234        6.6638898774        3.1024770760  MEMB      9               0.0000000000
      1119         9  DOPE      H17R           -9.9621407730        6.1400128193        3.9725957902  MEMB      9               0.0000000000
      1120         9  DOPE      H17S           -8.7203775494        6.0211664044        2.6738661229  MEMB      9               0.0000000000
      1121         9  DOPE      C218          -10.5415735992        6.9031184750        2.0017140520  MEMB      9               0.0000000000
      1122         9  DOPE      H18R          -10.0761578334        7.4833585137        1.1736488743  MEMB      9               0.0000000000
      1123         9  DOPE      H18S          -11.4124398369        7.4707258440        2.3905611113  MEMB      9               0.0000000000
      1124         9  DOPE      H18T          -10.8982028733        5.9389035496        1.5812807579  MEMB      9               0.0000000000
      1125         9  DOPE      C33            -8.9810361994       13.4394402715       11.9014923981  MEMB      9               0.0000000000
      1126         9  DOPE      H3X            -9.4358236453       14.4170214272       11.6196945709  MEMB      9               0.0000000000
      1127         9  DOPE      H3Y            -9.1523180416       12.7425918048       11.0481700147  MEMB      9               0.0000000000
      1128         9  DOPE      C34            -7.4756862852       13.6523335653       12.1038288796  MEMB      9               0.0000000000
      1129         9  DOPE      H4X            -7.3052400389       14.5126049869       12.7888414658  MEMB      9               0.0000000000
      1130         9  DOPE      H4Y            -7.0245281431       12.7525885153       12.5791191992  MEMB      9               0.0000000000
      1131         9  DOPE      C35            -6.7353507495       13.8833495569       10.7861080927  MEMB      9               0.0000000000
      1132         9  DOPE      H5X            -7.2543948833       14.6758007114       10.2095463272  MEMB      9               0.0000000000
      1133         9  DOPE      H5Y            -6.7694859707       12.9517058749       10.1786112128  MEMB      9               0.0000000000
      1134         9  DOPE      C36            -5.2767341816       14.2970046850       11.0040544952  MEMB      9               0.0000000000
      1135         9  DOPE      H6X            -4.7207694594       13.4829437051       11.4992101833  MEMB      9               0.0000000000
      1136         9  DOPE      H6Y            -5.2499212674       15.1845214175       11.6737356410  MEMB      9               0.0000000000
      1137         9  DOPE      C37            -4.5787888792       14.6255609639        9.6864445570  MEMB      9               0.0000000000
      1138         9  DOPE      H7X            -4.4738903120       13.7153064677        9.0700665383  MEMB      9               0.0000000000
      1139         9  DOPE      H7Y            -5.2709979493       15.2793957966        9.1290381516  MEMB      9               0.0000000000
      1140         9  DOPE      C38            -3.2159698202       15.3291524669        9.8504544899  MEMB      9               0.0000000000
      1141         9  DOPE      H8X            -3.1458770959       15.7160944523       10.8905613811  MEMB      9               0.0000000000
      1142         9  DOPE      H8Y            -3.2319604758       16.2259209997        9.1902208705  MEMB      9               0.0000000000
      1143         9  DOPE      C39            -2.0013778915       14.5023397045        9.4990764228  MEMB      9               0.0000000000
      1144         9  DOPE      H9X            -1.2986977111       14.2895892376       10.3223640398  MEMB      9               0.0000000000
      1145         9  DOPE      C310           -1.7281473033       14.0320297359        8.2685874714  MEMB      9               0.0000000000
      1146         9  DOPE      H10X           -0.7716061150       13.5094904317        8.1024033145  MEMB      9               0.0000000000
      1147         9  DOPE      C311           -2.5729918885       14.2369923033        7.0309025757  MEMB      9               0.0000000000
      1148         9  DOPE      H11X           -3.4915370445       14.8237099865        7.2595760123  MEMB      9               0.0000000000
      1149         9  DOPE      H11Y           -2.0253512482       14.8691541261        6.3135719630  MEMB      9               0.0000000000
      1150         9  DOPE      C312           -3.0537895480       12.9606382648        6.2990393582  MEMB      9               0.0000000000
      1151         9  DOPE      H12X           -3.3899075444       13.2424803969        5.2746245311  MEMB      9               0.0000000000
      1152         9  DOPE      H12Y           -3.9579117388       12.6052237159        6.8445050412  MEMB      9               0.0000000000
      1153         9  DOPE      C313           -2.0666437681       11.7786699460        6.2024807025  MEMB      9               0.0000000000
      1154         9  DOPE      H13X           -1.4550863555       11.8501158883        5.2796141797  MEMB      9               0.0000000000
      1155         9  DOPE      H13Y           -1.3580018064       11.7897850653        7.0560417028  MEMB      9               0.0000000000
      1156         9  DOPE      C314           -2.7833422306       10.4189969315        6.2869034548  MEMB      9               0.0000000000
      1157         9  DOPE      H14X           -3.5126290694       10.4729103343        7.1233317569  MEMB      9               0.0000000000
      1158         9  DOPE      H14Y           -2.0603557253        9.6086522659        6.5249510478  MEMB      9               0.0000000000
      1159         9  DOPE      C315           -3.5813899146       10.0388219564        5.0442153206  MEMB      9               0.0000000000
      1160         9  DOPE      H15X           -4.2690828762       10.8803813749        4.8100078097  MEMB      9               0.0000000000
      1161         9  DOPE      H15Y           -4.2217780801        9.1582631326        5.2877416961  MEMB      9               0.0000000000
      1162         9  DOPE      C316           -2.7140371461        9.6936467716        3.8271136503  MEMB      9               0.0000000000
      1163         9  DOPE      H16X           -3.1400092906        8.7930029035        3.3320957505  MEMB      9               0.0000000000
      1164         9  DOPE      H16Y           -1.6885967097        9.4141893269        4.1532657704  MEMB      9               0.0000000000
      1165         9  DOPE      C317           -2.6443192991       10.8554037850        2.8265374481  MEMB      9               0.0000000000
      1166         9  DOPE      H17X           -3.6124075515       11.4043017992        2.8163961161  MEMB      9               0.0000000000
      1167         9  DOPE      H17Y           -1.8692924839       11.5687830980        3.1887046538  MEMB      9               0.0000000000
      1168         9  DOPE      C318           -2.2885563276       10.4672411892        1.3946949507  MEMB      9               0.0000000000
      1169         9  DOPE      H18X           -1.4090458481        9.8063131284        1.3863756019  MEMB      9               0.0000000000
      1170         9  DOPE      H18Y           -3.0361768037        9.8943239440        0.8355491979  MEMB      9               0.0000000000
      1171         9  DOPE      H18Z           -2.1302866234       11.3891882077        0.8060483506  MEMB      9               0.0000000000
      1172        10  CHL1      C3            -11.9094724953        7.8655155314       17.4141146004  MEMB      10              0.0000000000
      1173        10  CHL1      H3            -11.7570383809        8.9712224819       17.4043898019  MEMB      10              0.0000000000
      1174        10  CHL1      O3            -11.9526484429        7.3928479595       18.7502276809  MEMB      10              0.0000000000
      1175        10  CHL1      H3'           -12.3703619861        8.0915880347       19.2978494452  MEMB      10              0.0000000000
      1176        10  CHL1      C4            -13.2370628208        7.4997840573       16.7479010448  MEMB      10              0.0000000000
      1177        10  CHL1      H4A           -13.3720541287        6.4062116590       16.8834026008  MEMB      10              0.0000000000
      1178        10  CHL1      H4B           -14.0690011422        7.9934298318       17.2988452854  MEMB      10              0.0000000000
      1179        10  CHL1      C5            -13.2337465447        7.8476008699       15.2761644214  MEMB      10              0.0000000000
      1180        10  CHL1      C6            -14.1057058730        8.7221409751       14.7594608993  MEMB      10              0.0000000000
      1181        10  CHL1      H6            -14.8814768282        9.1726873172       15.3946302443  MEMB      10              0.0000000000
      1182        10  CHL1      C7            -14.1655134089        9.0403373234       13.3023347668  MEMB      10              0.0000000000
      1183        10  CHL1      H7A           -15.2248535261        9.0354450889       12.9844085502  MEMB      10              0.0000000000
      1184        10  CHL1      H7B           -13.7574300083       10.0537576162       13.1003548757  MEMB      10              0.0000000000
      1185        10  CHL1      C8            -13.3902154437        7.9964681738       12.4562065751  MEMB      10              0.0000000000
      1186        10  CHL1      H8            -14.0037374270        7.0680503566       12.4757402286  MEMB      10              0.0000000000
      1187        10  CHL1      C14           -13.2341350969        8.4822426101       11.0473931943  MEMB      10              0.0000000000
      1188        10  CHL1      H14           -12.5703576170        9.3853082288       11.0588161542  MEMB      10              0.0000000000
      1189        10  CHL1      C15           -14.5315033638        8.9334319023       10.4318624955  MEMB      10              0.0000000000
      1190        10  CHL1      H15A          -15.2933409754        8.1940530108       10.7686262031  MEMB      10              0.0000000000
      1191        10  CHL1      H15B          -14.7886849479        9.9723028002       10.7213881002  MEMB      10              0.0000000000
      1192        10  CHL1      C16           -14.3455614102        8.8034199680        8.9488067095  MEMB      10              0.0000000000
      1193        10  CHL1      H16A          -15.1373220548        8.1099226933        8.5765954787  MEMB      10              0.0000000000
      1194        10  CHL1      H16B          -14.4518004932        9.7814914413        8.4364422691  MEMB      10              0.0000000000
      1195        10  CHL1      C17           -12.9361610689        8.1838056644        8.7482423980  MEMB      10              0.0000000000
      1196        10  CHL1      H17           -12.2226151720        9.0344325405        8.6472492184  MEMB      10              0.0000000000
      1197        10  CHL1      C13           -12.6177200937        7.4806473687       10.0855665969  MEMB      10              0.0000000000
      1198        10  CHL1      C18           -13.3616472823        6.1130586290       10.1268831569  MEMB      10              0.0000000000
      1199        10  CHL1      H18A          -13.3466380026        5.6601235896       11.1371479225  MEMB      10              0.0000000000
      1200        10  CHL1      H18B          -14.4259160604        6.2166902548        9.8355355344  MEMB      10              0.0000000000
      1201        10  CHL1      H18C          -12.8749020324        5.3860225274        9.4471632833  MEMB      10              0.0000000000
      1202        10  CHL1      C12           -11.1505611509        7.3632098982       10.5334449626  MEMB      10              0.0000000000
      1203        10  CHL1      H12A          -10.5963598223        6.6460338438        9.8978863712  MEMB      10              0.0000000000
      1204        10  CHL1      H12B          -10.6635650817        8.3579549061       10.4326783435  MEMB      10              0.0000000000
      1205        10  CHL1      C11           -11.0821196074        6.9152666730       12.0173562739  MEMB      10              0.0000000000
      1206        10  CHL1      H11A          -11.3606725804        5.8440745690       12.0150803385  MEMB      10              0.0000000000
      1207        10  CHL1      H11B          -10.0296123617        6.9885849695       12.3625647312  MEMB      10              0.0000000000
      1208        10  CHL1      C9            -12.0053768955        7.7221344456       13.0036174073  MEMB      10              0.0000000000
      1209        10  CHL1      H9            -11.5253600436        8.7305635734       13.0689676647  MEMB      10              0.0000000000
      1210        10  CHL1      C10           -12.1120352219        7.1784908386       14.4504819466  MEMB      10              0.0000000000
      1211        10  CHL1      C19           -12.4102879762        5.6562921479       14.3796870662  MEMB      10              0.0000000000
      1212        10  CHL1      H19A          -11.5699455510        5.1000312264       13.9225735793  MEMB      10              0.0000000000
      1213        10  CHL1      H19B          -12.5663712660        5.2021716311       15.3760365271  MEMB      10              0.0000000000
      1214        10  CHL1      H19C          -13.3221957749        5.4644068918       13.7760485022  MEMB      10              0.0000000000
      1215        10  CHL1      C1            -10.7809250646        7.5029014183       15.1716615003  MEMB      10              0.0000000000
      1216        10  CHL1      H1A            -9.9485492217        6.9860077284       14.6519751991  MEMB      10              0.0000000000
      1217        10  CHL1      H1B           -10.6212801518        8.5976676266       15.0496563638  MEMB      10              0.0000000000
      1218        10  CHL1      C2            -10.7500258213        7.1788617531       16.6753335879  MEMB      10              0.0000000000
      1219        10  CHL1      H2A            -9.7765981590        7.5027106999       17.1029574740  MEMB      10              0.0000000000
      1220        10  CHL1      H2B           -10.8376364567        6.0764972815       16.8050262634  MEMB      10              0.0000000000
      1221        10  CHL1      C20           -12.9327289067        7.3842455585        7.4577665218  MEMB      10              0.0000000000
      1222        10  CHL1      H20           -13.5709570342        6.4793419106        7.5914831421  MEMB      10              0.0000000000
      1223        10  CHL1      C21           -11.5104392474        6.9280322879        7.0876542153  MEMB      10              0.0000000000
      1224        10  CHL1      H21A          -11.1016587575        6.2342924576        7.8471483954  MEMB      10              0.0000000000
      1225        10  CHL1      H21B          -10.8376554251        7.8049999084        7.0029774825  MEMB      10              0.0000000000
      1226        10  CHL1      H21C          -11.5250737394        6.3945491294        6.1134973574  MEMB      10              0.0000000000
      1227        10  CHL1      C22           -13.5763087682        8.2024312242        6.3123649746  MEMB      10              0.0000000000
      1228        10  CHL1      H22A          -14.5529406776        8.6508448908        6.5955200473  MEMB      10              0.0000000000
      1229        10  CHL1      H22B          -12.9159041461        9.0426413806        6.0123015662  MEMB      10              0.0000000000
      1230        10  CHL1      C23           -13.9485182633        7.3181022522        5.1371169913  MEMB      10              0.0000000000
      1231        10  CHL1      H23A          -13.0825463684        7.2389864257        4.4441510502  MEMB      10              0.0000000000
      1232        10  CHL1      H23B          -14.1737042848        6.3013472322        5.5290541509  MEMB      10              0.0000000000
      1233        10  CHL1      C24           -15.1965987334        7.8453263525        4.4256195410  MEMB      10              0.0000000000
      1234        10  CHL1      H24A          -16.0943134063        7.7728618342        5.0781306440  MEMB      10              0.0000000000
      1235        10  CHL1      H24B          -15.0406321384        8.9212769326        4.1765664015  MEMB      10              0.0000000000
      1236        10  CHL1      C25           -15.4283842515        7.0798708730        3.1298092207  MEMB      10              0.0000000000
      1237        10  CHL1      H25           -14.4473724852        7.1340867521        2.6066860840  MEMB      10              0.0000000000
      1238        10  CHL1      C26           -15.6897093567        5.5865470485        3.3186772790  MEMB      10              0.0000000000
      1239        10  CHL1      H26A          -15.5545455181        5.0801788049        2.3429936306  MEMB      10              0.0000000000
      1240        10  CHL1      H26B          -14.9656017213        5.1201809137        4.0140083163  MEMB      10              0.0000000000
      1241        10  CHL1      H26C          -16.7209491409        5.4063408153        3.6806491010  MEMB      10              0.0000000000
      1242        10  CHL1      C27           -16.5150899645        7.7477723750        2.2746833859  MEMB      10              0.0000000000
      1243        10  CHL1      H27A          -16.5052780935        7.3156116145        1.2530086291  MEMB      10              0.0000000000
      1244        10  CHL1      H27B          -17.5219342308        7.6068403771        2.7141744879  MEMB      10              0.0000000000
      1245        10  CHL1      H27C          -16.3151330602        8.8365355472        2.1797456940  MEMB      10              0.0000000000
      1246        11  23SM      N               9.0381314480       11.2869204757       27.8390158037  MEMB      11              0.0000000000
      1247        11  23SM      C15             8.1515051414       10.4505564241       26.9567464226  MEMB      11              0.0000000000
      1248        11  23SM      H15A            7.7771058405        9.5458922963       27.4042667518  MEMB      11              0.0000000000
      1249        11  23SM      H15B            8.6862078194       10.2028457066       26.0457345202  MEMB      11              0.0000000000
      1250        11  23SM      H15C            7.3008143196       11.0542765526       26.5996343467  MEMB      11              0.0000000000
      1251        11  23SM      C14             8.2148511006       11.6782127471       29.0194727487  MEMB      11              0.0000000000
      1252        11  23SM      H14A            7.9873408316       10.7821762696       29.5879830233  MEMB      11              0.0000000000
      1253        11  23SM      H14B            7.2906919458       12.1317538706       28.6755346254  MEMB      11              0.0000000000
      1254        11  23SM      H14C            8.7553901898       12.3342976309       29.6911763734  MEMB      11              0.0000000000
      1255        11  23SM      C13            10.2275665497       10.5594380201       28.3873669676  MEMB      11              0.0000000000
      1256        11  23SM      H13A            9.9367308560        9.6078100400       28.8178361823  MEMB      11              0.0000000000
      1257        11  23SM      H13B           10.7049921002       11.1412188326       29.1752097183  MEMB      11              0.0000000000
      1258        11  23SM      H13C           10.9897602370       10.3929636685       27.6337008759  MEMB      11              0.0000000000
      1259        11  23SM      C12             9.4427780587       12.4973845362       27.0116440151  MEMB      11              0.0000000000
      1260        11  23SM      H12A           10.0755937625       13.1389102105       27.6016627012  MEMB      11              0.0000000000
      1261        11  23SM      H12B            8.5321468963       13.0418556373       26.7613279963  MEMB      11              0.0000000000
      1262        11  23SM      C11            10.1284368124       12.2475099766       25.6357332077  MEMB      11              0.0000000000
      1263        11  23SM      H11A           10.9314246157       11.4898005697       25.7649170704  MEMB      11              0.0000000000
      1264        11  23SM      H11B           10.6230114618       13.1922187762       25.3047735601  MEMB      11              0.0000000000
      1265        11  23SM      P               8.0176599293       12.7421331597       24.1641572842  MEMB      11              0.0000000000
      1266        11  23SM      O13             6.9586274864       12.6107218040       25.1805334125  MEMB      11              0.0000000000
      1267        11  23SM      O14             8.5838610740       14.0873622363       23.8850993035  MEMB      11              0.0000000000
      1268        11  23SM      O11             7.5487166468       12.0262510894       22.8433076952  MEMB      11              0.0000000000
      1269        11  23SM      O12             9.2138871641       11.7883739597       24.6362075872  MEMB      11              0.0000000000
      1270        11  23SM      C1S             8.3300132965       12.1393961031       21.6748137810  MEMB      11              0.0000000000
      1271        11  23SM      H1S             9.1668703534       11.4090427062       21.7248262330  MEMB      11              0.0000000000
      1272        11  23SM      H1T             8.7601328487       13.1580834659       21.5269257747  MEMB      11              0.0000000000
      1273        11  23SM      NF              8.2779491830       12.0086217171       19.2970087468  MEMB      11              0.0000000000
      1274        11  23SM      HNF             8.0082531776       12.7056047054       18.6417302520  MEMB      11              0.0000000000
      1275        11  23SM      C2S             7.4457266244       11.8229188058       20.4612164205  MEMB      11              0.0000000000
      1276        11  23SM      H2S             7.1322649324       10.7540747382       20.5252988351  MEMB      11              0.0000000000
      1277        11  23SM      C3S             6.1535420288       12.6960361575       20.4109087783  MEMB      11              0.0000000000
      1278        11  23SM      H3S             6.3957670510       13.7676219879       20.5865861043  MEMB      11              0.0000000000
      1279        11  23SM      O3              5.1758686701       12.2985049495       21.3776648357  MEMB      11              0.0000000000
      1280        11  23SM      HO3             5.7250565443       11.9653059580       22.0984702537  MEMB      11              0.0000000000
      1281        11  23SM      C4S             5.5994023641       12.5096018148       19.0222864174  MEMB      11              0.0000000000
      1282        11  23SM      H4S             5.0616854889       11.5647681384       18.8739459061  MEMB      11              0.0000000000
      1283        11  23SM      C5S             5.7186349220       13.3794724011       17.9966421428  MEMB      11              0.0000000000
      1284        11  23SM      H5S             6.1583058179       14.3753822643       18.1782500009  MEMB      11              0.0000000000
      1285        11  23SM      C6S             5.1661564534       13.1478112763       16.6117734100  MEMB      11              0.0000000000
      1286        11  23SM      H6S             4.5295379637       14.0067063054       16.3078154977  MEMB      11              0.0000000000
      1287        11  23SM      H6T             4.5114075324       12.2454753448       16.5853526247  MEMB      11              0.0000000000
      1288        11  23SM      C7S             6.2635478717       12.9714583832       15.5371832303  MEMB      11              0.0000000000
      1289        11  23SM      H7S             6.9053270227       12.0989261795       15.7919329012  MEMB      11              0.0000000000
      1290        11  23SM      H7T             6.9102063170       13.8794881980       15.5067425563  MEMB      11              0.0000000000
      1291        11  23SM      C8S             5.6572027710       12.7582565246       14.1408837807  MEMB      11              0.0000000000
      1292        11  23SM      H8S             5.1085316714       13.6878123890       13.8646879159  MEMB      11              0.0000000000
      1293        11  23SM      H8T             4.9176312402       11.9296587162       14.1807348788  MEMB      11              0.0000000000
      1294        11  23SM      C9S             6.6786808329       12.4508745257       13.0385814546  MEMB      11              0.0000000000
      1295        11  23SM      H9S             7.3533582205       11.6165320117       13.3267722864  MEMB      11              0.0000000000
      1296        11  23SM      H9T             7.3096268136       13.3533815838       12.9204366958  MEMB      11              0.0000000000
      1297        11  23SM      C10S            5.9865514584       12.1045519698       11.7116592008  MEMB      11              0.0000000000
      1298        11  23SM      H10S            5.1627000371       12.8254565432       11.5403600774  MEMB      11              0.0000000000
      1299        11  23SM      H10T            5.5345410722       11.0933860771       11.7873688946  MEMB      11              0.0000000000
      1300        11  23SM      C11S            6.9055879718       12.1765657097       10.4918726532  MEMB      11              0.0000000000
      1301        11  23SM      H11S            7.8130429209       11.5553045972       10.6535563701  MEMB      11              0.0000000000
      1302        11  23SM      H11T            7.2237995332       13.2319633146       10.3772390891  MEMB      11              0.0000000000
      1303        11  23SM      C12S            6.2126093689       11.7591098009        9.1907602497  MEMB      11              0.0000000000
      1304        11  23SM      H12S            5.2653064255       12.3271425108        9.0639098720  MEMB      11              0.0000000000
      1305        11  23SM      H12T            5.9541780354       10.6792466112        9.2478801031  MEMB      11              0.0000000000
      1306        11  23SM      C13S            7.1030906165       12.0118284416        7.9732330856  MEMB      11              0.0000000000
      1307        11  23SM      H13S            8.1163870678       11.6006163505        8.1843322240  MEMB      11              0.0000000000
      1308        11  23SM      H13T            7.2149392756       13.1084886855        7.8054057890  MEMB      11              0.0000000000
      1309        11  23SM      C14S            6.5633597902       11.3546800079        6.7006608733  MEMB      11              0.0000000000
      1310        11  23SM      H14S            5.5975095153       11.8270202376        6.4137366933  MEMB      11              0.0000000000
      1311        11  23SM      H14T            6.3798052122       10.2749365649        6.8967557388  MEMB      11              0.0000000000
      1312        11  23SM      C15S            7.5724664345       11.4910413516        5.5627087969  MEMB      11              0.0000000000
      1313        11  23SM      H15S            8.5674650042       11.1421505161        5.9261266663  MEMB      11              0.0000000000
      1314        11  23SM      H15T            7.6843702093       12.5703527336        5.3227157544  MEMB      11              0.0000000000
      1315        11  23SM      C16S            7.2222374641       10.6782321833        4.3088534082  MEMB      11              0.0000000000
      1316        11  23SM      H16S            7.2010402156        9.5927529020        4.5488147117  MEMB      11              0.0000000000
      1317        11  23SM      H16T            8.0515050628       10.8236416923        3.5914293327  MEMB      11              0.0000000000
      1318        11  23SM      C17S            5.9202483615       11.0622143283        3.5896156552  MEMB      11              0.0000000000
      1319        11  23SM      H17S            5.6940459590       12.1425549624        3.7340815347  MEMB      11              0.0000000000
      1320        11  23SM      H17T            5.0851219609       10.4835395622        4.0425307429  MEMB      11              0.0000000000
      1321        11  23SM      C18S            5.9978103110       10.7759835435        2.0853759390  MEMB      11              0.0000000000
      1322        11  23SM      H18S            6.4197990405       11.6428570421        1.5318562266  MEMB      11              0.0000000000
      1323        11  23SM      H18T            4.9953128357       10.5403515480        1.6701439528  MEMB      11              0.0000000000
      1324        11  23SM      H18U            6.6760092869        9.9152121003        1.9031222022  MEMB      11              0.0000000000
      1325        11  23SM      C1F             9.2954363066       11.2176510657       19.0258717606  MEMB      11              0.0000000000
      1326        11  23SM      OF              9.4606676106       10.1568664778       19.6130702546  MEMB      11              0.0000000000
      1327        11  23SM      C2F            10.2129343833       11.6707858527       17.9455431025  MEMB      11              0.0000000000
      1328        11  23SM      H2F            10.1042080593       10.9868682177       17.0751864610  MEMB      11              0.0000000000
      1329        11  23SM      H2G            11.2406922952       11.5773681677       18.3409097462  MEMB      11              0.0000000000
      1330        11  23SM      C3F            10.0772134090       13.1417414452       17.4804120356  MEMB      11              0.0000000000
      1331        11  23SM      H3F            10.2336210754       13.8372331954       18.3333874949  MEMB      11              0.0000000000
      1332        11  23SM      H3G             9.0753692194       13.3255034335       17.0357693837  MEMB      11              0.0000000000
      1333        11  23SM      C4F            11.1442083658       13.3867544991       16.4029845331  MEMB      11              0.0000000000
      1334        11  23SM      H4F            10.9521355399       12.6193686606       15.6187248438  MEMB      11              0.0000000000
      1335        11  23SM      H4G            12.1617142215       13.1995704389       16.8174895467  MEMB      11              0.0000000000
      1336        11  23SM      C5F            11.1383614341       14.7482226821       15.7059172274  MEMB      11              0.0000000000
      1337        11  23SM      H5F            11.9166630453       15.3994137445       16.1778818742  MEMB      11              0.0000000000
      1338        11  23SM      H5G            10.1596021515       15.2626105537       15.8302621295  MEMB      11              0.0000000000
      1339        11  23SM      C6F            11.4390316736       14.5885265824       14.2048706241  MEMB      11              0.0000000000
      1340        11  23SM      H6F            12.3004038401       13.9073586565       14.0494420203  MEMB      11              0.0000000000
      1341        11  23SM      H6G            11.7332720162       15.5786462856       13.8064218387  MEMB      11              0.0000000000
      1342        11  23SM      C7F            10.2229450173       14.1353293956       13.3780542123  MEMB      11              0.0000000000
      1343        11  23SM      H7F             9.3473861341       14.7337802041       13.7254584522  MEMB      11              0.0000000000
      1344        11  23SM      H7G             9.9854037269       13.0668393505       13.5545408189  MEMB      11              0.0000000000
      1345        11  23SM      C8F            10.3767443273       14.4067112894       11.8710329987  MEMB      11              0.0000000000
      1346        11  23SM      H8F            10.6408429970       13.4710513644       11.3357093953  MEMB      11              0.0000000000
      1347        11  23SM      H8G            11.2138563104       15.1245268770       11.7200319948  MEMB      11              0.0000000000
      1348        11  23SM      C9F             9.1112972705       15.0586999957       11.2900676983  MEMB      11              0.0000000000
      1349        11  23SM      H9F             9.0695477854       16.1058630624       11.6614545158  MEMB      11              0.0000000000
      1350        11  23SM      H9G             8.2046970280       14.5649444420       11.6744483842  MEMB      11              0.0000000000
      1351        11  23SM      C10F            9.0356467271       15.0669660131        9.7650960037  MEMB      11              0.0000000000
      1352        11  23SM      H10F            8.7939458262       14.0658231783        9.3603489891  MEMB      11              0.0000000000
      1353        11  23SM      H10G           10.0534648439       15.2751352532        9.3791384487  MEMB      11              0.0000000000
      1354        11  23SM      C11F            8.0353554818       16.1214434602        9.2408053506  MEMB      11              0.0000000000
      1355        11  23SM      H11F            8.1220052692       17.0509186665        9.8485025374  MEMB      11              0.0000000000
      1356        11  23SM      H11G            6.9962463565       15.7492033379        9.3355515863  MEMB      11              0.0000000000
      1357        11  23SM      C12F            8.3942360124       16.4584689482        7.7955031609  MEMB      11              0.0000000000
      1358        11  23SM      H12F            8.4506555157       15.5240412467        7.1967586783  MEMB      11              0.0000000000
      1359        11  23SM      H12G            9.3916811347       16.8988259491        7.8587200722  MEMB      11              0.0000000000
      1360        11  23SM      C13F            7.6414061088       17.5501879316        7.0377736933  MEMB      11              0.0000000000
      1361        11  23SM      H13F            7.6442557425       18.5059214468        7.6045704838  MEMB      11              0.0000000000
      1362        11  23SM      H13G            6.5958575237       17.1999871322        6.9533310676  MEMB      11              0.0000000000
      1363        11  23SM      C14F            8.3565702523       17.7712649195        5.6831367058  MEMB      11              0.0000000000
      1364        11  23SM      H14F            8.8915855896       16.8273154176        5.4214615540  MEMB      11              0.0000000000
      1365        11  23SM      H14G            9.1564281106       18.5370012191        5.7876861214  MEMB      11              0.0000000000
      1366        11  23SM      C15F            7.4449887222       18.0875398653        4.4914736525  MEMB      11              0.0000000000
      1367        11  23SM      H15F            8.0303389926       17.9514860488        3.5529408866  MEMB      11              0.0000000000
      1368        11  23SM      H15G            7.1309054629       19.1536255296        4.5380133025  MEMB      11              0.0000000000
      1369        11  23SM      C16F            6.1995794740       17.1896704478        4.4450128182  MEMB      11              0.0000000000
      1370        11  23SM      H16F            5.6004418727       17.3878055327        3.5462774608  MEMB      11              0.0000000000
      1371        11  23SM      H16G            5.5452153295       17.5095112139        5.2780816519  MEMB      11              0.0000000000
      1372        11  23SM      C17F            6.5089694357       15.6794519026        4.4559819947  MEMB      11              0.0000000000
      1373        11  23SM      H17F            5.6530956751       15.0698968544        4.8031355133  MEMB      11              0.0000000000
      1374        11  23SM      H17G            7.3317629709       15.4404580003        5.1569183323  MEMB      11              0.0000000000
      1375        11  23SM      C18F            6.8132736564       15.1792052840        3.0468622512  MEMB      11              0.0000000000
      1376        11  23SM      H18F            7.1360645061       16.0445004853        2.4368832267  MEMB      11              0.0000000000
      1377        11  23SM      H18G            5.8927066112       14.7534034864        2.5905221967  MEMB      11              0.0000000000
      1378        11  23SM      C19F            7.9311789738       14.1574334714        2.9954375514  MEMB      11              0.0000000000
      1379        11  23SM      H19F            7.5743639837       13.1886717870        3.3848826980  MEMB      11              0.0000000000
      1380        11  23SM      H19G            8.7725260584       14.5017471234        3.6402720305  MEMB      11              0.0000000000
      1381        11  23SM      C20F            8.4443792145       13.9565030671        1.5808483696  MEMB      11              0.0000000000
      1382        11  23SM      H20F            8.6504323707       14.9518999290        1.1165440854  MEMB      11              0.0000000000
      1383        11  23SM      H20G            7.7138369995       13.4324619350        0.9281790219  MEMB      11              0.0000000000
      1384        11  23SM      C21F            9.7675988082       13.2229357560        1.6216691017  MEMB      11              0.0000000000
      1385        11  23SM      H21F           10.4344629294       13.6752680483        2.3885200905  MEMB      11              0.0000000000
      1386        11  23SM      H21G           10.2171935422       13.4264561677        0.6299614625  MEMB      11              0.0000000000
      1387        11  23SM      C22F            9.7177841668       11.7074758444        1.7924940042  MEMB      11              0.0000000000
      1388        11  23SM      H22F            8.7631230933       11.2773098958        1.4163281033  MEMB      11              0.0000000000
      1389        11  23SM      H22G            9.8277851996       11.4174064983        2.8591963776  MEMB      11              0.0000000000
      1390        11  23SM      C23F           10.8764485654       11.1582014837        0.9986317249  MEMB      11              0.0000000000
      1391        11  23SM      H23F           10.5248573972       10.8274066556        0.0093732008  MEMB      11              0.0000000000
      1392        11  23SM      H23G           11.4423207681       10.3471849000        1.4362054127  MEMB      11              0.0000000000
      1393        11  23SM      H23H           11.6522954658       11.9331053899        0.9084223691  MEMB      11              0.0000000000
      1394        12  DOPC      N              -6.6398859486      -12.4127098390       17.7719926990  MEMB      12              0.0000000000
      1395        12  DOPC      C12            -5.3816340252      -13.2148174429       17.5902188489  MEMB      12              0.0000000000
      1396        12  DOPC      H12A           -4.6114491526      -12.6225310010       17.1174921176  MEMB      12              0.0000000000
      1397        12  DOPC      H12B           -5.5834313519      -14.0563579138       16.9359318763  MEMB      12              0.0000000000
      1398        12  DOPC      C13            -6.4010301229      -11.5074545738       18.9426354752  MEMB      12              0.0000000000
      1399        12  DOPC      H13A           -6.1446540192      -12.1480734723       19.7980681822  MEMB      12              0.0000000000
      1400        12  DOPC      H13B           -5.5819591680      -10.8286535301       18.7878299976  MEMB      12              0.0000000000
      1401        12  DOPC      H13C           -7.3065491062      -11.0038272320       19.2618598176  MEMB      12              0.0000000000
      1402        12  DOPC      C14            -7.7439807768      -13.3448531808       18.1799568889  MEMB      12              0.0000000000
      1403        12  DOPC      H14A           -8.0246403140      -14.0405007290       17.4072446269  MEMB      12              0.0000000000
      1404        12  DOPC      H14B           -7.3738284225      -13.9167407124       19.0445436423  MEMB      12              0.0000000000
      1405        12  DOPC      H14C           -8.6046742825      -12.8081576419       18.5568857232  MEMB      12              0.0000000000
      1406        12  DOPC      C15            -7.0448111380      -11.6285268268       16.5763357827  MEMB      12              0.0000000000
      1407        12  DOPC      H15A           -7.8679857741      -10.9707797581       16.8318570745  MEMB      12              0.0000000000
      1408        12  DOPC      H15B           -7.3507727517      -12.2555469026       15.7493627325  MEMB      12              0.0000000000
      1409        12  DOPC      H15C           -6.2358741018      -11.0018408731       16.2293120411  MEMB      12              0.0000000000
      1410        12  DOPC      C11            -4.7468591436      -13.7699847875       18.8952662802  MEMB      12              0.0000000000
      1411        12  DOPC      H11A           -4.2106362840      -14.6512510752       18.5033954662  MEMB      12              0.0000000000
      1412        12  DOPC      H11B           -3.9872285158      -13.0823664671       19.3151893352  MEMB      12              0.0000000000
      1413        12  DOPC      P              -5.4254143073      -15.4410605504       20.7882426557  MEMB      12              0.0000000000
      1414        12  DOPC      O13            -6.7266044932      -15.8190783683       21.3761150382  MEMB      12              0.0000000000
      1415        12  DOPC      O14            -4.3249480552      -15.0821611809       21.7121847546  MEMB      12              0.0000000000
      1416        12  DOPC      O12            -5.6768862539      -14.1332067873       19.9188408041  MEMB      12              0.0000000000
      1417        12  DOPC      O11            -4.9309210316      -16.5088960411       19.6738483405  MEMB      12              0.0000000000
      1418        12  DOPC      C1             -5.8029286647      -16.7126275154       18.5635942603  MEMB      12              0.0000000000
      1419        12  DOPC      HA             -5.8660832501      -15.8079239804       17.9315884420  MEMB      12              0.0000000000
      1420        12  DOPC      HB             -6.8283944986      -16.9348681016       18.9412921521  MEMB      12              0.0000000000
      1421        12  DOPC      C2             -5.4642825594      -17.8954369836       17.6065435591  MEMB      12              0.0000000000
      1422        12  DOPC      HS             -5.5643463949      -18.8184656420       18.2228128180  MEMB      12              0.0000000000
      1423        12  DOPC      O21            -4.1826761373      -17.8431560003       16.9251086506  MEMB      12              0.0000000000
      1424        12  DOPC      C21            -3.7896587100      -19.0847987841       16.5516594329  MEMB      12              0.0000000000
      1425        12  DOPC      O22            -3.9327128179      -20.0807429042       17.2304142753  MEMB      12              0.0000000000
      1426        12  DOPC      C22            -3.1885331814      -19.0713025688       15.1612569105  MEMB      12              0.0000000000
      1427        12  DOPC      H2R            -3.0935244447      -20.1077471786       14.7795736074  MEMB      12              0.0000000000
      1428        12  DOPC      H2S            -2.1738807939      -18.6577433247       15.2439270294  MEMB      12              0.0000000000
      1429        12  DOPC      C3             -6.5686854925      -17.8492846919       16.5173492436  MEMB      12              0.0000000000
      1430        12  DOPC      HX             -7.5496477704      -17.9120642529       17.0381987958  MEMB      12              0.0000000000
      1431        12  DOPC      HY             -6.4429348859      -18.7622161112       15.8851938535  MEMB      12              0.0000000000
      1432        12  DOPC      O31            -6.4811109689      -16.5983854300       15.7641324758  MEMB      12              0.0000000000
      1433        12  DOPC      C31            -6.9523961974      -16.7261380792       14.5191744160  MEMB      12              0.0000000000
      1434        12  DOPC      O32            -7.5373130095      -17.7144973029       14.1260957569  MEMB      12              0.0000000000
      1435        12  DOPC      C32            -6.5923314174      -15.4939358809       13.6706499241  MEMB      12              0.0000000000
      1436        12  DOPC      H2X            -6.9303795786      -14.5978387882       14.2248082413  MEMB      12              0.0000000000
      1437        12  DOPC      H2Y            -5.4849948129      -15.4704388195       13.6020224007  MEMB      12              0.0000000000
      1438        12  DOPC      C23            -3.9823635803      -18.2263056645       14.1516639931  MEMB      12              0.0000000000
      1439        12  DOPC      H3R            -3.2102507348      -17.7092571175       13.5538597314  MEMB      12              0.0000000000
      1440        12  DOPC      H3S            -4.5401308102      -17.4021263612       14.6086176623  MEMB      12              0.0000000000
      1441        12  DOPC      C24            -4.8607387690      -19.1203744871       13.2773641935  MEMB      12              0.0000000000
      1442        12  DOPC      H4R            -5.7025863796      -19.5549805546       13.8570797359  MEMB      12              0.0000000000
      1443        12  DOPC      H4S            -4.2320696690      -19.9700943148       12.9286775703  MEMB      12              0.0000000000
      1444        12  DOPC      C25            -5.4260630390      -18.4674203105       12.0239764942  MEMB      12              0.0000000000
      1445        12  DOPC      H5R            -6.4199475787      -18.0335073787       12.1966883222  MEMB      12              0.0000000000
      1446        12  DOPC      H5S            -5.6468263280      -19.2906634264       11.3084035571  MEMB      12              0.0000000000
      1447        12  DOPC      C26            -4.5198977092      -17.4018684519       11.4094517940  MEMB      12              0.0000000000
      1448        12  DOPC      H6R            -3.4552488396      -17.5809706361       11.6405921637  MEMB      12              0.0000000000
      1449        12  DOPC      H6S            -4.7453899559      -16.3821639559       11.7829385028  MEMB      12              0.0000000000
      1450        12  DOPC      C27            -4.6597998121      -17.4766861719        9.9111466489  MEMB      12              0.0000000000
      1451        12  DOPC      H7R            -5.5856606060      -16.9584388702        9.5822053803  MEMB      12              0.0000000000
      1452        12  DOPC      H7S            -4.7985852900      -18.5565364840        9.6873918763  MEMB      12              0.0000000000
      1453        12  DOPC      C28            -3.4132451871      -16.9622064353        9.2008195429  MEMB      12              0.0000000000
      1454        12  DOPC      H8R            -2.4987821370      -17.1887802308        9.7842057443  MEMB      12              0.0000000000
      1455        12  DOPC      H8S            -3.4935905712      -15.8556135095        9.1458586991  MEMB      12              0.0000000000
      1456        12  DOPC      C29            -3.3821487550      -17.6591142907        7.8708301794  MEMB      12              0.0000000000
      1457        12  DOPC      H9R            -2.7849973200      -18.5835053628        7.8192984343  MEMB      12              0.0000000000
      1458        12  DOPC      C210           -4.0294377417      -17.2123250745        6.7919492045  MEMB      12              0.0000000000
      1459        12  DOPC      H10R           -3.9873872324      -17.7837475786        5.8517389358  MEMB      12              0.0000000000
      1460        12  DOPC      C211           -4.8503021492      -15.9493948152        6.7873645266  MEMB      12              0.0000000000
      1461        12  DOPC      H11R           -5.4195410397      -15.7892021146        7.7294558481  MEMB      12              0.0000000000
      1462        12  DOPC      H11S           -5.5986501561      -15.9613025542        5.9657609677  MEMB      12              0.0000000000
      1463        12  DOPC      C212           -3.8478144473      -14.7966350846        6.6164184189  MEMB      12              0.0000000000
      1464        12  DOPC      H12R           -3.0539916498      -14.8353493544        7.3932918901  MEMB      12              0.0000000000
      1465        12  DOPC      H12S           -4.3633903261      -13.8175274654        6.7444296733  MEMB      12              0.0000000000
      1466        12  DOPC      C213           -3.2012883980      -14.8297053138        5.2323553165  MEMB      12              0.0000000000
      1467        12  DOPC      H13R           -2.8097617949      -15.8399752412        4.9880574729  MEMB      12              0.0000000000
      1468        12  DOPC      H13S           -2.3114069346      -14.1829083535        5.1845071500  MEMB      12              0.0000000000
      1469        12  DOPC      C214           -4.2326725523      -14.3877638874        4.2095920176  MEMB      12              0.0000000000
      1470        12  DOPC      H14R           -4.0171283099      -13.4006060314        3.7595334836  MEMB      12              0.0000000000
      1471        12  DOPC      H14S           -5.1929823245      -14.2053615819        4.7453564673  MEMB      12              0.0000000000
      1472        12  DOPC      C215           -4.4650301241      -15.4494612663        3.1476043172  MEMB      12              0.0000000000
      1473        12  DOPC      H15R           -4.4776761948      -16.4499881743        3.6411715000  MEMB      12              0.0000000000
      1474        12  DOPC      H15S           -3.6741144527      -15.4650280765        2.3693693130  MEMB      12              0.0000000000
      1475        12  DOPC      C216           -5.8453077289      -15.1978737852        2.5809944699  MEMB      12              0.0000000000
      1476        12  DOPC      H16R           -6.4816189395      -15.2631593836        3.4749466403  MEMB      12              0.0000000000
      1477        12  DOPC      H16S           -6.1684798431      -16.0167725258        1.9245110390  MEMB      12              0.0000000000
      1478        12  DOPC      C217           -6.0279638142      -13.8283611296        1.9161572320  MEMB      12              0.0000000000
      1479        12  DOPC      H17R           -5.9899634097      -13.0205811618        2.6832484391  MEMB      12              0.0000000000
      1480        12  DOPC      H17S           -7.0526974058      -13.7931248294        1.4846050690  MEMB      12              0.0000000000
      1481        12  DOPC      C218           -4.9788598504      -13.5456352533        0.8382900029  MEMB      12              0.0000000000
      1482        12  DOPC      H18R           -4.0466194710      -13.1454205319        1.2887410930  MEMB      12              0.0000000000
      1483        12  DOPC      H18S           -5.3542860599      -12.8135610982        0.0975031437  MEMB      12              0.0000000000
      1484        12  DOPC      H18T           -4.7245713673      -14.4777911977        0.2926339390  MEMB      12              0.0000000000
      1485        12  DOPC      C33            -7.1640500513      -15.4116518885       12.2193954233  MEMB      12              0.0000000000
      1486        12  DOPC      H3X            -8.2657903611      -15.4717222806       12.1900986021  MEMB      12              0.0000000000
      1487        12  DOPC      H3Y            -6.8075238930      -16.2218052224       11.5575875866  MEMB      12              0.0000000000
      1488        12  DOPC      C34            -6.7363087384      -14.1112968175       11.5349547570  MEMB      12              0.0000000000
      1489        12  DOPC      H4X            -5.6226856410      -14.0892009165       11.4921192392  MEMB      12              0.0000000000
      1490        12  DOPC      H4Y            -7.0809744641      -13.2452491001       12.1415470484  MEMB      12              0.0000000000
      1491        12  DOPC      C35            -7.2646278039      -13.9661296511       10.1031143569  MEMB      12              0.0000000000
      1492        12  DOPC      H5X            -8.3764809965      -13.9349060397       10.0915999941  MEMB      12              0.0000000000
      1493        12  DOPC      H5Y            -6.9465156836      -14.8466902692        9.4993008243  MEMB      12              0.0000000000
      1494        12  DOPC      C36            -6.6916301845      -12.6961987403        9.4661975964  MEMB      12              0.0000000000
      1495        12  DOPC      H6X            -7.1529138112      -11.8033322268        9.9433572046  MEMB      12              0.0000000000
      1496        12  DOPC      H6Y            -5.5985547017      -12.6751547089        9.6923341862  MEMB      12              0.0000000000
      1497        12  DOPC      C37            -6.8477364908      -12.6250717489        7.9433556084  MEMB      12              0.0000000000
      1498        12  DOPC      H7X            -6.0658008983      -11.9126626831        7.5863696243  MEMB      12              0.0000000000
      1499        12  DOPC      H7Y            -6.6244513378      -13.6156459157        7.4867511626  MEMB      12              0.0000000000
      1500        12  DOPC      C38            -8.2334865816      -12.1388631529        7.4885137140  MEMB      12              0.0000000000
      1501        12  DOPC      H8X            -8.5490655206      -11.2868987381        8.1312967910  MEMB      12              0.0000000000
      1502        12  DOPC      H8Y            -8.9753928963      -12.9534644489        7.6512991059  MEMB      12              0.0000000000
      1503        12  DOPC      C39            -8.1521019151      -11.6878896630        6.0503201244  MEMB      12              0.0000000000
      1504        12  DOPC      H9X            -7.3871905919      -10.9186859890        5.8625750478  MEMB      12              0.0000000000
      1505        12  DOPC      C310           -8.8848747932      -12.1373568968        5.0173632418  MEMB      12              0.0000000000
      1506        12  DOPC      H10X           -8.7184769703      -11.7026697709        4.0189485482  MEMB      12              0.0000000000
      1507        12  DOPC      C311           -9.9530291719      -13.1968233287        5.0988042306  MEMB      12              0.0000000000
      1508        12  DOPC      H11X          -10.6038937810      -13.1842346391        4.2065799025  MEMB      12              0.0000000000
      1509        12  DOPC      H11Y          -10.6127647473      -12.9915615869        5.9587934661  MEMB      12              0.0000000000
      1510        12  DOPC      C312           -9.4692249764      -14.6324624770        5.2779263896  MEMB      12              0.0000000000
      1511        12  DOPC      H12X          -10.3460710149      -15.2551095302        5.5662645231  MEMB      12              0.0000000000
      1512        12  DOPC      H12Y           -8.7432854343      -14.6709799776        6.1215870673  MEMB      12              0.0000000000
      1513        12  DOPC      C313           -8.8212245309      -15.2169089863        4.0201828033  MEMB      12              0.0000000000
      1514        12  DOPC      H13X           -8.2701417519      -14.4049531262        3.4993943799  MEMB      12              0.0000000000
      1515        12  DOPC      H13Y           -8.1140888578      -16.0110164509        4.3541419634  MEMB      12              0.0000000000
      1516        12  DOPC      C314           -9.7976286485      -15.8709599850        3.0487827427  MEMB      12              0.0000000000
      1517        12  DOPC      H14X          -10.5266312656      -16.4366489900        3.6633721081  MEMB      12              0.0000000000
      1518        12  DOPC      H14Y          -10.3284278329      -15.0727565657        2.4872658328  MEMB      12              0.0000000000
      1519        12  DOPC      C315           -9.2026767861      -16.8710789671        2.0437855855  MEMB      12              0.0000000000
      1520        12  DOPC      H15X           -8.8032027220      -17.7497110999        2.5791762523  MEMB      12              0.0000000000
      1521        12  DOPC      H15Y           -8.3203949493      -16.3888779430        1.6009032035  MEMB      12              0.0000000000
      1522        12  DOPC      C316          -10.2627824876      -17.2834758858        0.9876528384  MEMB      12              0.0000000000
      1523        12  DOPC      H16X          -11.1101724983      -17.7309076252        1.5460977679  MEMB      12              0.0000000000
      1524        12  DOPC      H16Y          -10.6568941357      -16.3621201412        0.5059956618  MEMB      12              0.0000000000
      1525        12  DOPC      C317           -9.8534768787      -18.2709734521       -0.1289855459  MEMB      12              0.0000000000
      1526        12  DOPC      H17X           -9.1132862943      -17.8136712728       -0.7928335737  MEMB      12              0.0000000000
      1527        12  DOPC      H17Y           -9.3341110119      -19.1496327342        0.3002282219  MEMB      12              0.0000000000
      1528        12  DOPC      C318          -11.0045818758      -18.7209605729       -1.0429576502  MEMB      12              0.0000000000
      1529        12  DOPC      H18X          -11.7314720636      -19.3537291532       -0.4947572194  MEMB      12              0.0000000000
      1530        12  DOPC      H18Y          -11.5487826740      -17.8386289169       -1.4421294826  MEMB      12              0.0000000000
      1531        12  DOPC      H18Z          -10.6100860190      -19.3095961191       -1.9003734671  MEMB      12              0.0000000000
      1532        13  23SM      N              16.1490466315        0.1153335846       27.6628743332  MEMB      13              0.0000000000
      1533        13  23SM      C15            15.1428510590       -0.9485231791       27.9651975669  MEMB      13              0.0000000000
      1534        13  23SM      H15A           14.4177069688       -0.9725642034       27.1442051390  MEMB      13              0.0000000000
      1535        13  23SM      H15B           14.5929252381       -0.7920292800       28.8752814319  MEMB      13              0.0000000000
      1536        13  23SM      H15C           15.6191506633       -1.9244233523       27.9755459901  MEMB      13              0.0000000000
      1537        13  23SM      C14            15.4445634697        1.4237696608       27.4678496804  MEMB      13              0.0000000000
      1538        13  23SM      H14A           14.7097053549        1.3147855431       26.6680029647  MEMB      13              0.0000000000
      1539        13  23SM      H14B           16.1780541989        2.1663230175       27.1752126809  MEMB      13              0.0000000000
      1540        13  23SM      H14C           14.9726716656        1.7222580335       28.3928415567  MEMB      13              0.0000000000
      1541        13  23SM      C13            17.0928585017        0.2624461820       28.7948344383  MEMB      13              0.0000000000
      1542        13  23SM      H13A           16.5783186975        0.6671559816       29.6659631382  MEMB      13              0.0000000000
      1543        13  23SM      H13B           17.8548196637        1.0049479929       28.5664761548  MEMB      13              0.0000000000
      1544        13  23SM      H13C           17.5464314767       -0.6740327911       29.1095794688  MEMB      13              0.0000000000
      1545        13  23SM      C12            16.8852729930       -0.3002491138       26.3987478513  MEMB      13              0.0000000000
      1546        13  23SM      H12A           17.0551521038       -1.3819146822       26.4432982663  MEMB      13              0.0000000000
      1547        13  23SM      H12B           17.8526433175        0.1864533615       26.3485030268  MEMB      13              0.0000000000
      1548        13  23SM      C11            16.1429905271       -0.0345889805       25.0703434697  MEMB      13              0.0000000000
      1549        13  23SM      H11A           16.7557642751       -0.4294572435       24.2182153224  MEMB      13              0.0000000000
      1550        13  23SM      H11B           16.0668668343        1.0628903026       24.9033296219  MEMB      13              0.0000000000
      1551        13  23SM      P              14.6397417228       -2.1239291657       24.7220650800  MEMB      13              0.0000000000
      1552        13  23SM      O13            15.7896696336       -2.8477860378       25.3136566085  MEMB      13              0.0000000000
      1553        13  23SM      O14            13.2732309424       -2.5122088441       25.0960915700  MEMB      13              0.0000000000
      1554        13  23SM      O11            14.8333029322       -2.0798525280       23.1472271472  MEMB      13              0.0000000000
      1555        13  23SM      O12            14.8225799338       -0.5927484992       25.1057328286  MEMB      13              0.0000000000
      1556        13  23SM      C1S            14.2845085797       -0.9607446977       22.4402303223  MEMB      13              0.0000000000
      1557        13  23SM      H1S            14.6548964565        0.0035528054       22.8576763242  MEMB      13              0.0000000000
      1558        13  23SM      H1T            13.1757486639       -0.9618801029       22.5225125521  MEMB      13              0.0000000000
      1559        13  23SM      NF             14.4229152801        0.3587979596       20.3866312079  MEMB      13              0.0000000000
      1560        13  23SM      HNF            13.5601748636        0.5066377020       19.9092000852  MEMB      13              0.0000000000
      1561        13  23SM      C2S            14.7001479963       -0.9672367120       20.9433540628  MEMB      13              0.0000000000
      1562        13  23SM      H2S            15.7944365046       -1.1469704168       20.8658697084  MEMB      13              0.0000000000
      1563        13  23SM      C3S            13.9571034635       -2.1065891923       20.1939918629  MEMB      13              0.0000000000
      1564        13  23SM      H3S            12.8857067757       -2.1217613966       20.4914234285  MEMB      13              0.0000000000
      1565        13  23SM      O3             14.4966891939       -3.3997572854       20.4652562565  MEMB      13              0.0000000000
      1566        13  23SM      HO3            14.7369870396       -3.4203142540       21.4051724806  MEMB      13              0.0000000000
      1567        13  23SM      C4S            14.0895379659       -1.9071515253       18.7056417867  MEMB      13              0.0000000000
      1568        13  23SM      H4S            14.9035383823       -2.4924075267       18.2531662471  MEMB      13              0.0000000000
      1569        13  23SM      C5S            13.2898537075       -1.1595921484       17.9151946450  MEMB      13              0.0000000000
      1570        13  23SM      H5S            12.4467777999       -0.5939476475       18.3516516285  MEMB      13              0.0000000000
      1571        13  23SM      C6S            13.4696452850       -0.9982381162       16.4322062001  MEMB      13              0.0000000000
      1572        13  23SM      H6S            12.9883221742       -0.0550059115       16.0895675403  MEMB      13              0.0000000000
      1573        13  23SM      H6T            12.9597126541       -1.8225513858       15.9016376805  MEMB      13              0.0000000000
      1574        13  23SM      C7S            14.8923602144       -1.0805643046       15.8786198721  MEMB      13              0.0000000000
      1575        13  23SM      H7S            15.3711906667       -2.0357761563       16.1983171460  MEMB      13              0.0000000000
      1576        13  23SM      H7T            15.5198738372       -0.2529447528       16.2707963042  MEMB      13              0.0000000000
      1577        13  23SM      C8S            14.8308652805       -1.1045295678       14.3463129535  MEMB      13              0.0000000000
      1578        13  23SM      H8S            14.2995670522       -2.0371733734       14.0481574247  MEMB      13              0.0000000000
      1579        13  23SM      H8T            15.8576154944       -1.2073473814       13.9542621908  MEMB      13              0.0000000000
      1580        13  23SM      C9S            14.0738538012        0.0731270564       13.6939365728  MEMB      13              0.0000000000
      1581        13  23SM      H9S            14.2950423618        1.0398024348       14.1984879382  MEMB      13              0.0000000000
      1582        13  23SM      H9T            12.9832767470       -0.1143094086       13.8158688087  MEMB      13              0.0000000000
      1583        13  23SM      C10S           14.3936152058        0.1872343357       12.1975529590  MEMB      13              0.0000000000
      1584        13  23SM      H10S           14.4650797664       -0.8430197296       11.7846501400  MEMB      13              0.0000000000
      1585        13  23SM      H10T           15.3837442527        0.6712499431       12.0728448249  MEMB      13              0.0000000000
      1586        13  23SM      C11S           13.3569308050        0.9482149271       11.3608204471  MEMB      13              0.0000000000
      1587        13  23SM      H11S           13.3382992529        2.0220742410       11.6469228626  MEMB      13              0.0000000000
      1588        13  23SM      H11T           12.3573201336        0.5426621990       11.5769996690  MEMB      13              0.0000000000
      1589        13  23SM      C12S           13.6266984259        0.8004510683        9.8551988626  MEMB      13              0.0000000000
      1590        13  23SM      H12S           13.5837179168       -0.2757409867        9.5734224447  MEMB      13              0.0000000000
      1591        13  23SM      H12T           14.6630760330        1.1502568915        9.6751874204  MEMB      13              0.0000000000
      1592        13  23SM      C13S           12.6564193973        1.5988125310        8.9671810603  MEMB      13              0.0000000000
      1593        13  23SM      H13S           12.4204942525        2.5692567851        9.4579349214  MEMB      13              0.0000000000
      1594        13  23SM      H13T           11.7086125721        1.0217389533        8.8871298917  MEMB      13              0.0000000000
      1595        13  23SM      C14S           13.1893659126        1.8382091520        7.5403048181  MEMB      13              0.0000000000
      1596        13  23SM      H14S           13.5769165243        0.8787273127        7.1607405133  MEMB      13              0.0000000000
      1597        13  23SM      H14T           14.0164967472        2.5849408557        7.5668362250  MEMB      13              0.0000000000
      1598        13  23SM      C15S           12.0901806514        2.1968601937        6.5362244714  MEMB      13              0.0000000000
      1599        13  23SM      H15S           11.7498279200        3.2227585663        6.7943649768  MEMB      13              0.0000000000
      1600        13  23SM      H15T           11.2577704989        1.4813189634        6.6842594466  MEMB      13              0.0000000000
      1601        13  23SM      C16S           12.4471749846        2.1272076569        5.0346125264  MEMB      13              0.0000000000
      1602        13  23SM      H16S           13.5434493274        2.2179746332        4.8788219904  MEMB      13              0.0000000000
      1603        13  23SM      H16T           11.9739404521        3.0197266875        4.5698593304  MEMB      13              0.0000000000
      1604        13  23SM      C17S           11.9152354018        0.8866233221        4.2810168748  MEMB      13              0.0000000000
      1605        13  23SM      H17S           10.8300078163        0.9688481989        4.0453788638  MEMB      13              0.0000000000
      1606        13  23SM      H17T           12.0215037297        0.0007651236        4.9402749449  MEMB      13              0.0000000000
      1607        13  23SM      C18S           12.6454354231        0.6483676385        2.9598367194  MEMB      13              0.0000000000
      1608        13  23SM      H18S           12.3363732576        1.3967001719        2.2087577205  MEMB      13              0.0000000000
      1609        13  23SM      H18T           12.4012218529       -0.3400249223        2.5287385713  MEMB      13              0.0000000000
      1610        13  23SM      H18U           13.7440159640        0.7259367105        3.1010316408  MEMB      13              0.0000000000
      1611        13  23SM      C1F            15.2216064544        1.4072656111       20.6006712568  MEMB      13              0.0000000000
      1612        13  23SM      OF             16.1366318872        1.3416157767       21.4164122856  MEMB      13              0.0000000000
      1613        13  23SM      C2F            14.9161089272        2.6489993534       19.8151790107  MEMB      13              0.0000000000
      1614        13  23SM      H2F            14.6026550718        3.4188415604       20.5483006860  MEMB      13              0.0000000000
      1615        13  23SM      H2G            14.0543851881        2.4684098577       19.1358377519  MEMB      13              0.0000000000
      1616        13  23SM      C3F            16.1196823304        3.1524381398       18.9734738199  MEMB      13              0.0000000000
      1617        13  23SM      H3F            17.0507085615        3.1717248933       19.5847046936  MEMB      13              0.0000000000
      1618        13  23SM      H3G            15.8948670553        4.1972745922       18.6584602832  MEMB      13              0.0000000000
      1619        13  23SM      C4F            16.3874901246        2.3424014925       17.6880396395  MEMB      13              0.0000000000
      1620        13  23SM      H4F            15.4334396127        2.1840882839       17.1355805712  MEMB      13              0.0000000000
      1621        13  23SM      H4G            16.7802639841        1.3386865428       17.9641757481  MEMB      13              0.0000000000
      1622        13  23SM      C5F            17.3798139302        3.0583553066       16.7457930584  MEMB      13              0.0000000000
      1623        13  23SM      H5F            18.1397438379        3.5707746887       17.3793572434  MEMB      13              0.0000000000
      1624        13  23SM      H5G            16.8443247788        3.8485746824       16.1729462473  MEMB      13              0.0000000000
      1625        13  23SM      C6F            18.1262427432        2.1370113354       15.7613394618  MEMB      13              0.0000000000
      1626        13  23SM      H6F            18.5548174254        1.2706567507       16.3119713016  MEMB      13              0.0000000000
      1627        13  23SM      H6G            18.9694437947        2.7091000736       15.3141443629  MEMB      13              0.0000000000
      1628        13  23SM      C7F            17.2616525564        1.6281045438       14.5965896980  MEMB      13              0.0000000000
      1629        13  23SM      H7F            16.9065224811        2.4849896567       13.9880648748  MEMB      13              0.0000000000
      1630        13  23SM      H7G            16.3560824698        1.1574894438       15.0278963489  MEMB      13              0.0000000000
      1631        13  23SM      C8F            17.9689477337        0.5928824728       13.6983860315  MEMB      13              0.0000000000
      1632        13  23SM      H8F            17.2083138259       -0.0399409280       13.1971106498  MEMB      13              0.0000000000
      1633        13  23SM      H8G            18.5995168958       -0.0770147756       14.3222391919  MEMB      13              0.0000000000
      1634        13  23SM      C9F            18.7733152656        1.1903492480       12.5383301789  MEMB      13              0.0000000000
      1635        13  23SM      H9F            19.3848836535        0.3821168972       12.0754460951  MEMB      13              0.0000000000
      1636        13  23SM      H9G            19.4618504438        1.9641149902       12.9290678552  MEMB      13              0.0000000000
      1637        13  23SM      C10F           17.8678011912        1.7955667759       11.4530616338  MEMB      13              0.0000000000
      1638        13  23SM      H10F           17.1984039614        2.5540049458       11.9137671155  MEMB      13              0.0000000000
      1639        13  23SM      H10G           17.2190038779        1.0002710032       11.0239398351  MEMB      13              0.0000000000
      1640        13  23SM      C11F           18.6526934977        2.4704723757       10.3220753844  MEMB      13              0.0000000000
      1641        13  23SM      H11F           19.4788895503        3.0625248603       10.7728698852  MEMB      13              0.0000000000
      1642        13  23SM      H11G           17.9842992269        3.1865230266        9.7910438137  MEMB      13              0.0000000000
      1643        13  23SM      C12F           19.2171881546        1.4637437177        9.3078660159  MEMB      13              0.0000000000
      1644        13  23SM      H12F           19.2089472855        0.4454515087        9.7590118986  MEMB      13              0.0000000000
      1645        13  23SM      H12G           20.2742352949        1.7197169630        9.0790059481  MEMB      13              0.0000000000
      1646        13  23SM      C13F           18.4252653382        1.4175152005        7.9932488736  MEMB      13              0.0000000000
      1647        13  23SM      H13F           18.9440515041        0.7256423343        7.2942706537  MEMB      13              0.0000000000
      1648        13  23SM      H13G           18.4028694853        2.4266691033        7.5249992369  MEMB      13              0.0000000000
      1649        13  23SM      C14F           16.9958454463        0.9318789397        8.2267681084  MEMB      13              0.0000000000
      1650        13  23SM      H14F           16.4588073759        1.6944372586        8.8341724981  MEMB      13              0.0000000000
      1651        13  23SM      H14G           17.0257628963       -0.0116217169        8.8181263730  MEMB      13              0.0000000000
      1652        13  23SM      C15F           16.1807691643        0.6518810727        6.9659969232  MEMB      13              0.0000000000
      1653        13  23SM      H15F           15.8890439010        1.6017155026        6.4616595084  MEMB      13              0.0000000000
      1654        13  23SM      H15G           15.2794708651        0.1137900773        7.3250813038  MEMB      13              0.0000000000
      1655        13  23SM      C16F           16.8139485866       -0.3047123025        5.9642840195  MEMB      13              0.0000000000
      1656        13  23SM      H16F           17.1712675638       -1.2083476099        6.5056078943  MEMB      13              0.0000000000
      1657        13  23SM      H16G           17.6862013026        0.1966693275        5.4954545786  MEMB      13              0.0000000000
      1658        13  23SM      C17F           15.8028509117       -0.7429989937        4.8961099451  MEMB      13              0.0000000000
      1659        13  23SM      H17F           15.3330569014        0.1576724227        4.4483198990  MEMB      13              0.0000000000
      1660        13  23SM      H17G           14.9767722387       -1.3151414533        5.3744336079  MEMB      13              0.0000000000
      1661        13  23SM      C18F           16.4676781302       -1.6092032051        3.8214288157  MEMB      13              0.0000000000
      1662        13  23SM      H18F           15.6961644885       -2.0421656754        3.1525686331  MEMB      13              0.0000000000
      1663        13  23SM      H18G           16.9961467993       -2.4515292945        4.3191956589  MEMB      13              0.0000000000
      1664        13  23SM      C19F           17.4470547887       -0.8248290102        2.9458119738  MEMB      13              0.0000000000
      1665        13  23SM      H19F           17.9402450584       -1.5221843750        2.2323916038  MEMB      13              0.0000000000
      1666        13  23SM      H19G           18.2482164330       -0.3696857276        3.5664228159  MEMB      13              0.0000000000
      1667        13  23SM      C20F           16.7416886841        0.2778384437        2.1586669584  MEMB      13              0.0000000000
      1668        13  23SM      H20F           16.2676742702        1.0174040969        2.8397849499  MEMB      13              0.0000000000
      1669        13  23SM      H20G           15.9334419290       -0.1739325320        1.5394053719  MEMB      13              0.0000000000
      1670        13  23SM      C21F           17.7024885302        1.0265705035        1.2508218709  MEMB      13              0.0000000000
      1671        13  23SM      H21F           18.0280751298        0.3257063135        0.4485527206  MEMB      13              0.0000000000
      1672        13  23SM      H21G           18.6099694415        1.3493718446        1.8055492277  MEMB      13              0.0000000000
      1673        13  23SM      C22F           17.0191218236        2.2368716872        0.6298596247  MEMB      13              0.0000000000
      1674        13  23SM      H22F           17.0158405754        3.0936319956        1.3421640549  MEMB      13              0.0000000000
      1675        13  23SM      H22G           15.9549135031        1.9786895753        0.4226160538  MEMB      13              0.0000000000
      1676        13  23SM      C23F           17.6896637903        2.6145154838       -0.6759074586  MEMB      13              0.0000000000
      1677        13  23SM      H23F           18.5868460435        3.2406995235       -0.4942256725  MEMB      13              0.0000000000
      1678        13  23SM      H23G           16.9735239630        3.1598588077       -1.3231597283  MEMB      13              0.0000000000
      1679        13  23SM      H23H           18.0142479164        1.7076434692       -1.2234522795  MEMB      13              0.0000000000
      1680        14  CHL1      C3            -12.1692604544       -9.5021573441       17.3133295090  MEMB      14              0.0000000000
      1681        14  CHL1      H3            -11.2968989788       -8.8134050893       17.2033417098  MEMB      14              0.0000000000
      1682        14  CHL1      O3            -12.5010101861       -9.6404286551       18.6755045694  MEMB      14              0.0000000000
      1683        14  CHL1      H3'           -12.5837906006       -8.7301135183       18.9911028266  MEMB      14              0.0000000000
      1684        14  CHL1      C4            -13.3923418019       -8.9728039267       16.5647441791  MEMB      14              0.0000000000
      1685        14  CHL1      H4A           -14.2548994310       -9.6425166614       16.7738909667  MEMB      14              0.0000000000
      1686        14  CHL1      H4B           -13.6726023464       -7.9708455926       16.9655523504  MEMB      14              0.0000000000
      1687        14  CHL1      C5            -13.1122353034       -8.9429727787       15.0787075688  MEMB      14              0.0000000000
      1688        14  CHL1      C6            -13.1930262871       -7.8114108450       14.4020114709  MEMB      14              0.0000000000
      1689        14  CHL1      H6            -13.4985658256       -6.8919263038       14.9226529718  MEMB      14              0.0000000000
      1690        14  CHL1      C7            -12.9649038474       -7.7412997517       12.9274736716  MEMB      14              0.0000000000
      1691        14  CHL1      H7A           -13.7753078200       -7.1458977959       12.4579309858  MEMB      14              0.0000000000
      1692        14  CHL1      H7B           -11.9914866027       -7.2461658924       12.7084978732  MEMB      14              0.0000000000
      1693        14  CHL1      C8            -12.9722424933       -9.0888142246       12.2347898449  MEMB      14              0.0000000000
      1694        14  CHL1      H8            -14.0254488938       -9.4290251471       12.2266528465  MEMB      14              0.0000000000
      1695        14  CHL1      C14           -12.4688731764       -8.9044638999       10.8407231194  MEMB      14              0.0000000000
      1696        14  CHL1      H14           -11.3761779175       -8.6567648273       10.9096976754  MEMB      14              0.0000000000
      1697        14  CHL1      C15           -13.0783804875       -7.7449502644       10.0399813492  MEMB      14              0.0000000000
      1698        14  CHL1      H15A          -14.1618563301       -7.6613385736       10.2679995242  MEMB      14              0.0000000000
      1699        14  CHL1      H15B          -12.5752817993       -6.7823085942       10.2684534287  MEMB      14              0.0000000000
      1700        14  CHL1      C16           -12.8742646740       -8.1693319412        8.5946736649  MEMB      14              0.0000000000
      1701        14  CHL1      H16A          -13.8714212532       -8.1672386237        8.1022074402  MEMB      14              0.0000000000
      1702        14  CHL1      H16B          -12.1951413172       -7.4872545627        8.0444319967  MEMB      14              0.0000000000
      1703        14  CHL1      C17           -12.2980602331       -9.6194421463        8.6366895957  MEMB      14              0.0000000000
      1704        14  CHL1      H17           -11.1875001726       -9.5362969149        8.5529296111  MEMB      14              0.0000000000
      1705        14  CHL1      C13           -12.5847306630      -10.1772917355       10.0343935337  MEMB      14              0.0000000000
      1706        14  CHL1      C18           -14.0500379201      -10.7188670179       10.0560838365  MEMB      14              0.0000000000
      1707        14  CHL1      H18A          -14.1798177386      -11.6012227240        9.4048486811  MEMB      14              0.0000000000
      1708        14  CHL1      H18B          -14.3590977739      -11.0568935778       11.0627437373  MEMB      14              0.0000000000
      1709        14  CHL1      H18C          -14.7582180484       -9.9387506742        9.7147989420  MEMB      14              0.0000000000
      1710        14  CHL1      C12           -11.5430489828      -11.1344934126       10.6752022505  MEMB      14              0.0000000000
      1711        14  CHL1      H12A          -11.4260672058      -12.0769820858       10.1164791699  MEMB      14              0.0000000000
      1712        14  CHL1      H12B          -10.5428219832      -10.6506779225       10.6528780585  MEMB      14              0.0000000000
      1713        14  CHL1      C11           -11.8987906579      -11.4063922496       12.1552751768  MEMB      14              0.0000000000
      1714        14  CHL1      H11A          -12.8205555374      -12.0205068572       12.1519087458  MEMB      14              0.0000000000
      1715        14  CHL1      H11B          -11.1044551289      -12.0248089920       12.6216931754  MEMB      14              0.0000000000
      1716        14  CHL1      C9            -12.1079779274      -10.0877518127       12.9697602239  MEMB      14              0.0000000000
      1717        14  CHL1      H9            -11.0962736027       -9.6178987717       13.0365888798  MEMB      14              0.0000000000
      1718        14  CHL1      C10           -12.6238013150      -10.2408498148       14.4153515376  MEMB      14              0.0000000000
      1719        14  CHL1      C19           -13.8268690180      -11.2015075896       14.3596903035  MEMB      14              0.0000000000
      1720        14  CHL1      H19A          -14.5546956608      -10.9012384330       13.5833929940  MEMB      14              0.0000000000
      1721        14  CHL1      H19B          -13.5034389689      -12.2313531591       14.1201326407  MEMB      14              0.0000000000
      1722        14  CHL1      H19C          -14.3730908286      -11.2432239068       15.3233253513  MEMB      14              0.0000000000
      1723        14  CHL1      C1            -11.4579866383      -10.7645962644       15.2780452093  MEMB      14              0.0000000000
      1724        14  CHL1      H1A           -11.1502226773      -11.7212221744       14.8315081953  MEMB      14              0.0000000000
      1725        14  CHL1      H1B           -10.5842816100      -10.0832299641       15.1721774351  MEMB      14              0.0000000000
      1726        14  CHL1      C2            -11.8105462249      -10.8762061110       16.7656489146  MEMB      14              0.0000000000
      1727        14  CHL1      H2A           -10.9889216028      -11.3272074528       17.3576411392  MEMB      14              0.0000000000
      1728        14  CHL1      H2B           -12.7311758351      -11.4900712450       16.8790154025  MEMB      14              0.0000000000
      1729        14  CHL1      C20           -12.8127686604      -10.4156543033        7.4542108348  MEMB      14              0.0000000000
      1730        14  CHL1      H20           -13.9274257451      -10.4740284659        7.4822988650  MEMB      14              0.0000000000
      1731        14  CHL1      C21           -12.2557852594      -11.8398771231        7.5076696681  MEMB      14              0.0000000000
      1732        14  CHL1      H21A          -12.6014225563      -12.4601877795        6.6563626910  MEMB      14              0.0000000000
      1733        14  CHL1      H21B          -12.5887562517      -12.3663698382        8.4145550012  MEMB      14              0.0000000000
      1734        14  CHL1      H21C          -11.1476817262      -11.8045506761        7.5277288974  MEMB      14              0.0000000000
      1735        14  CHL1      C22           -12.4407491128       -9.6996146300        6.1494815637  MEMB      14              0.0000000000
      1736        14  CHL1      H22A          -13.1144972086       -8.8215041172        6.0226267812  MEMB      14              0.0000000000
      1737        14  CHL1      H22B          -11.3938006466       -9.3216217838        6.1936493592  MEMB      14              0.0000000000
      1738        14  CHL1      C23           -12.5839323420      -10.5958048682        4.9293545248  MEMB      14              0.0000000000
      1739        14  CHL1      H23A          -11.7268292254      -11.2968652893        4.8843853069  MEMB      14              0.0000000000
      1740        14  CHL1      H23B          -13.5234149944      -11.1888053611        5.0069870255  MEMB      14              0.0000000000
      1741        14  CHL1      C24           -12.6262398538       -9.7455950016        3.6794361696  MEMB      14              0.0000000000
      1742        14  CHL1      H24A          -13.5448542989       -9.1235363381        3.7457600109  MEMB      14              0.0000000000
      1743        14  CHL1      H24B          -11.7579580783       -9.0548831362        3.6411321711  MEMB      14              0.0000000000
      1744        14  CHL1      C25           -12.6792250689      -10.5568265145        2.3903987701  MEMB      14              0.0000000000
      1745        14  CHL1      H25           -13.4553869974      -11.3477983852        2.5149422343  MEMB      14              0.0000000000
      1746        14  CHL1      C26           -13.0936719961       -9.5897656517        1.2976135828  MEMB      14              0.0000000000
      1747        14  CHL1      H26A          -13.9779420302       -8.9961261165        1.5844526319  MEMB      14              0.0000000000
      1748        14  CHL1      H26B          -12.2980608685       -8.8344397216        1.1886620349  MEMB      14              0.0000000000
      1749        14  CHL1      H26C          -13.2974469662      -10.0986001954        0.3345931362  MEMB      14              0.0000000000
      1750        14  CHL1      C27           -11.3262507248      -11.1982029047        2.0410997330  MEMB      14              0.0000000000
      1751        14  CHL1      H27A          -11.3295645578      -11.6225921951        1.0197911922  MEMB      14              0.0000000000
      1752        14  CHL1      H27B          -10.5117996161      -10.4484701031        2.1053962756  MEMB      14              0.0000000000
      1753        14  CHL1      H27C          -11.1022024788      -12.0239434596        2.7339538334  MEMB      14              0.0000000000
      1754        15  DOPE      N               5.0161744176      -13.3793605420       17.3800064723  MEMB      15              0.0000000000
      1755        15  DOPE      HN1             4.3539092688      -12.5854719293       17.5331640207  MEMB      15              0.0000000000
      1756        15  DOPE      HN2             5.5609589381      -13.2000370998       16.5142455150  MEMB      15              0.0000000000
      1757        15  DOPE      HN3             4.4588885772      -14.2491746381       17.2646290791  MEMB      15              0.0000000000
      1758        15  DOPE      C12             5.9797141266      -13.5620885354       18.5164254849  MEMB      15              0.0000000000
      1759        15  DOPE      H12A            6.2550133886      -14.6265644356       18.5107234912  MEMB      15              0.0000000000
      1760        15  DOPE      H12B            5.4295249775      -13.4065088129       19.4512174291  MEMB      15              0.0000000000
      1761        15  DOPE      C11             7.2410060208      -12.6648092169       18.4277225761  MEMB      15              0.0000000000
      1762        15  DOPE      H11A            6.9356310556      -11.6129362039       18.2301719314  MEMB      15              0.0000000000
      1763        15  DOPE      H11B            7.8910454992      -12.9708607895       17.5789787159  MEMB      15              0.0000000000
      1764        15  DOPE      P               8.2826588205      -13.8952365644       20.5616953302  MEMB      15              0.0000000000
      1765        15  DOPE      O13             7.0353768020      -13.9728908908       21.3664805920  MEMB      15              0.0000000000
      1766        15  DOPE      O14             9.5748622102      -13.7199406598       21.2678471321  MEMB      15              0.0000000000
      1767        15  DOPE      O11             8.3322971392      -15.0198842340       19.4730390363  MEMB      15              0.0000000000
      1768        15  DOPE      O12             8.0196397263      -12.6586459418       19.6211695061  MEMB      15              0.0000000000
      1769        15  DOPE      C1              7.9681484029      -16.3912038373       19.5338219838  MEMB      15              0.0000000000
      1770        15  DOPE      HA              7.0559451583      -16.5326158092       20.1557177445  MEMB      15              0.0000000000
      1771        15  DOPE      HB              8.7941690596      -16.9679592350       20.0170343086  MEMB      15              0.0000000000
      1772        15  DOPE      C2              7.7227771334      -16.9874976508       18.0894676128  MEMB      15              0.0000000000
      1773        15  DOPE      HS              8.6766467449      -17.4766591096       17.7883733121  MEMB      15              0.0000000000
      1774        15  DOPE      O21             7.3371922091      -15.9837853173       17.1218664389  MEMB      15              0.0000000000
      1775        15  DOPE      C21             8.3156552080      -15.3485805343       16.5384797072  MEMB      15              0.0000000000
      1776        15  DOPE      O22             9.4060069052      -15.1000698400       16.9681370795  MEMB      15              0.0000000000
      1777        15  DOPE      C22             7.9710188879      -15.0043709351       15.1235363343  MEMB      15              0.0000000000
      1778        15  DOPE      H2R             6.8875175391      -14.8472499557       14.9821131030  MEMB      15              0.0000000000
      1779        15  DOPE      H2S             8.2850753336      -15.8977709152       14.5308010776  MEMB      15              0.0000000000
      1780        15  DOPE      C3              6.5952834148      -18.0769338308       18.0159366702  MEMB      15              0.0000000000
      1781        15  DOPE      HX              5.6514832229      -17.5109468985       17.9680024520  MEMB      15              0.0000000000
      1782        15  DOPE      HY              6.5442505069      -18.6321155518       18.9732930642  MEMB      15              0.0000000000
      1783        15  DOPE      O31             6.6925641976      -19.0298048822       16.9075844322  MEMB      15              0.0000000000
      1784        15  DOPE      C31             6.3577009931      -18.5517509431       15.7044530085  MEMB      15              0.0000000000
      1785        15  DOPE      O32             6.0362765653      -17.4002336605       15.4770021680  MEMB      15              0.0000000000
      1786        15  DOPE      C32             6.3943805202      -19.6315502999       14.5970967346  MEMB      15              0.0000000000
      1787        15  DOPE      H2X             7.2918612078      -20.2628838027       14.7069549127  MEMB      15              0.0000000000
      1788        15  DOPE      H2Y             5.4845166190      -20.2572881505       14.6952563757  MEMB      15              0.0000000000
      1789        15  DOPE      C23             8.8415816066      -13.8115671980       14.6935126850  MEMB      15              0.0000000000
      1790        15  DOPE      H3R             9.9210825919      -13.9509003922       14.9358145214  MEMB      15              0.0000000000
      1791        15  DOPE      H3S             8.5413231502      -12.8656213595       15.1931348439  MEMB      15              0.0000000000
      1792        15  DOPE      C24             8.7648527836      -13.6773261884       13.1952355800  MEMB      15              0.0000000000
      1793        15  DOPE      H4R             7.7447591039      -13.2855581228       12.9697749334  MEMB      15              0.0000000000
      1794        15  DOPE      H4S             8.8484273734      -14.6686184973       12.6924918162  MEMB      15              0.0000000000
      1795        15  DOPE      C25             9.8219212976      -12.7596644408       12.5883419041  MEMB      15              0.0000000000
      1796        15  DOPE      H5R            10.7780142125      -13.2883402246       12.3868810758  MEMB      15              0.0000000000
      1797        15  DOPE      H5S            10.0389564418      -11.8857953575       13.2411295080  MEMB      15              0.0000000000
      1798        15  DOPE      C26             9.1664169914      -12.3291475934       11.3050621828  MEMB      15              0.0000000000
      1799        15  DOPE      H6R             8.2255163859      -11.8166517180       11.6217832943  MEMB      15              0.0000000000
      1800        15  DOPE      H6S             8.8855332692      -13.2348131390       10.7155653817  MEMB      15              0.0000000000
      1801        15  DOPE      C27             9.9052754164      -11.3816391873       10.4006675377  MEMB      15              0.0000000000
      1802        15  DOPE      H7R            10.8475859409      -11.8182918422        9.9947230542  MEMB      15              0.0000000000
      1803        15  DOPE      H7S            10.1641046769      -10.4614661087       10.9635778684  MEMB      15              0.0000000000
      1804        15  DOPE      C28             8.9261512190      -11.1587843403        9.2501831941  MEMB      15              0.0000000000
      1805        15  DOPE      H8R             8.8060508143      -12.1817663558        8.8319804399  MEMB      15              0.0000000000
      1806        15  DOPE      H8S             9.4142573870      -10.5663788195        8.4415577261  MEMB      15              0.0000000000
      1807        15  DOPE      C29             7.5612258561      -10.5529874098        9.5695812772  MEMB      15              0.0000000000
      1808        15  DOPE      H9R             7.5882706974       -9.5861881108       10.0874453989  MEMB      15              0.0000000000
      1809        15  DOPE      C210            6.3529126989      -11.1051715674        9.3243301789  MEMB      15              0.0000000000
      1810        15  DOPE      H10R            5.4648125667      -10.4887350256        9.5014917918  MEMB      15              0.0000000000
      1811        15  DOPE      C211            6.0745602954      -12.4464267377        8.6844738902  MEMB      15              0.0000000000
      1812        15  DOPE      H11R            5.0619237463      -12.8123233987        8.9688612945  MEMB      15              0.0000000000
      1813        15  DOPE      H11S            6.7830001641      -13.1884406483        9.1060010637  MEMB      15              0.0000000000
      1814        15  DOPE      C212            6.2056749274      -12.4728334924        7.1435921017  MEMB      15              0.0000000000
      1815        15  DOPE      H12R            5.4820105087      -11.7547424731        6.7103918287  MEMB      15              0.0000000000
      1816        15  DOPE      H12S            5.9088545546      -13.4737338401        6.7618764389  MEMB      15              0.0000000000
      1817        15  DOPE      C213            7.6273451161      -12.0882271117        6.6894798564  MEMB      15              0.0000000000
      1818        15  DOPE      H13R            8.4339238091      -12.8255312898        6.8504975593  MEMB      15              0.0000000000
      1819        15  DOPE      H13S            7.8497236919      -11.1569042411        7.2240931479  MEMB      15              0.0000000000
      1820        15  DOPE      C214            7.7982507687      -11.4920520315        5.3372181022  MEMB      15              0.0000000000
      1821        15  DOPE      H14R            8.8084390077      -11.0253227025        5.2275769662  MEMB      15              0.0000000000
      1822        15  DOPE      H14S            7.0257942630      -10.6985604129        5.3697110524  MEMB      15              0.0000000000
      1823        15  DOPE      C215            7.4798088058      -12.4600985522        4.2527734700  MEMB      15              0.0000000000
      1824        15  DOPE      H15R            6.8610737753      -11.8991632827        3.5307039953  MEMB      15              0.0000000000
      1825        15  DOPE      H15S            6.8395848737      -13.2459157467        4.6922708077  MEMB      15              0.0000000000
      1826        15  DOPE      C216            8.7052064864      -13.0568048299        3.5716421049  MEMB      15              0.0000000000
      1827        15  DOPE      H16R            8.3978088379      -14.0442545986        3.1687817546  MEMB      15              0.0000000000
      1828        15  DOPE      H16S            9.5142528058      -13.2294306992        4.3192674278  MEMB      15              0.0000000000
      1829        15  DOPE      C217            9.1816412256      -12.0808125864        2.4907365704  MEMB      15              0.0000000000
      1830        15  DOPE      H17R           10.0417395451      -11.5264779544        2.9313370042  MEMB      15              0.0000000000
      1831        15  DOPE      H17S            8.3671474838      -11.3418165936        2.3057506379  MEMB      15              0.0000000000
      1832        15  DOPE      C218            9.5524318822      -12.6169628551        1.1136029687  MEMB      15              0.0000000000
      1833        15  DOPE      H18R            8.6773320867      -12.9950541272        0.5492094973  MEMB      15              0.0000000000
      1834        15  DOPE      H18S           10.2865416430      -13.4361035388        1.2184008908  MEMB      15              0.0000000000
      1835        15  DOPE      H18T           10.0003875357      -11.7857803191        0.5166433041  MEMB      15              0.0000000000
      1836        15  DOPE      C33             6.4010123357      -18.8785170082       13.2412042624  MEMB      15              0.0000000000
      1837        15  DOPE      H3X             7.2487421293      -18.1572477760       13.2622608176  MEMB      15              0.0000000000
      1838        15  DOPE      H3Y             5.4682906615      -18.2847843909       13.2123190047  MEMB      15              0.0000000000
      1839        15  DOPE      C34             6.4686115246      -19.6133052737       11.8871056552  MEMB      15              0.0000000000
      1840        15  DOPE      H4X             7.4971457791      -20.0104835260       11.7341890032  MEMB      15              0.0000000000
      1841        15  DOPE      H4Y             5.7606059552      -20.4693489345       11.8477405718  MEMB      15              0.0000000000
      1842        15  DOPE      C35             6.1218950717      -18.6328724763       10.7337755896  MEMB      15              0.0000000000
      1843        15  DOPE      H5X             5.0275005648      -18.4239132090       10.7570872457  MEMB      15              0.0000000000
      1844        15  DOPE      H5Y             6.3458585620      -19.0982624302        9.7479990847  MEMB      15              0.0000000000
      1845        15  DOPE      C36             6.8501737565      -17.2784092197       10.8476387503  MEMB      15              0.0000000000
      1846        15  DOPE      H6X             7.9471495109      -17.4736557932       10.8939152665  MEMB      15              0.0000000000
      1847        15  DOPE      H6Y             6.5694103879      -16.7672351202       11.7931391409  MEMB      15              0.0000000000
      1848        15  DOPE      C37             6.5638600177      -16.2833083512        9.7123866094  MEMB      15              0.0000000000
      1849        15  DOPE      H7X             5.6219417970      -16.5389860393        9.1823799645  MEMB      15              0.0000000000
      1850        15  DOPE      H7Y             6.4502372987      -15.2645466749       10.1522194327  MEMB      15              0.0000000000
      1851        15  DOPE      C38             7.7586524138      -16.2991482788        8.7645849180  MEMB      15              0.0000000000
      1852        15  DOPE      H8X             7.8380811153      -17.3417490458        8.3974030327  MEMB      15              0.0000000000
      1853        15  DOPE      H8Y             8.6616324238      -16.1145804212        9.3875084561  MEMB      15              0.0000000000
      1854        15  DOPE      C39             7.7887289139      -15.3063734604        7.6480294574  MEMB      15              0.0000000000
      1855        15  DOPE      H9X             7.9900009530      -14.2893941712        7.9967759186  MEMB      15              0.0000000000
      1856        15  DOPE      C310            7.7150254323      -15.5634010513        6.3325753717  MEMB      15              0.0000000000
      1857        15  DOPE      H10X            7.7247013708      -14.7372031415        5.6068945669  MEMB      15              0.0000000000
      1858        15  DOPE      C311            7.5824616589      -16.9343300059        5.7456365477  MEMB      15              0.0000000000
      1859        15  DOPE      H11X            7.4308073616      -17.7003673345        6.5334716522  MEMB      15              0.0000000000
      1860        15  DOPE      H11Y            6.6474384470      -16.9725262126        5.1624256561  MEMB      15              0.0000000000
      1861        15  DOPE      C312            8.8257528401      -17.4023534928        4.9598128868  MEMB      15              0.0000000000
      1862        15  DOPE      H12X            8.9715208491      -18.4697541685        5.2238074542  MEMB      15              0.0000000000
      1863        15  DOPE      H12Y            9.7435924629      -16.8432345463        5.2351378553  MEMB      15              0.0000000000
      1864        15  DOPE      C313            8.7546199163      -17.3013037095        3.4487738591  MEMB      15              0.0000000000
      1865        15  DOPE      H13X            8.6007766827      -16.2358138186        3.1687237932  MEMB      15              0.0000000000
      1866        15  DOPE      H13Y            9.7146332842      -17.6340165489        2.9993020229  MEMB      15              0.0000000000
      1867        15  DOPE      C314            7.6280500184      -18.1468731529        2.8942033700  MEMB      15              0.0000000000
      1868        15  DOPE      H14X            6.7333133328      -17.8782234383        3.4731543425  MEMB      15              0.0000000000
      1869        15  DOPE      H14Y            7.7953182083      -19.2376254421        3.0221923725  MEMB      15              0.0000000000
      1870        15  DOPE      C315            7.3673059055      -17.7838768104        1.4502398202  MEMB      15              0.0000000000
      1871        15  DOPE      H15X            7.7554989227      -18.5946480968        0.8164553289  MEMB      15              0.0000000000
      1872        15  DOPE      H15Y            7.9837493144      -16.8807272879        1.2178706755  MEMB      15              0.0000000000
      1873        15  DOPE      C316            5.9077407410      -17.3949117276        1.1986561100  MEMB      15              0.0000000000
      1874        15  DOPE      H16X            5.8632021648      -16.5391754620        0.4992119888  MEMB      15              0.0000000000
      1875        15  DOPE      H16Y            5.4294385328      -17.0984799345        2.1541972593  MEMB      15              0.0000000000
      1876        15  DOPE      C317            4.9884936821      -18.4150119873        0.5720075834  MEMB      15              0.0000000000
      1877        15  DOPE      H17X            5.3984836706      -18.7080260827       -0.4082050955  MEMB      15              0.0000000000
      1878        15  DOPE      H17Y            4.9609609195      -19.3023354632        1.2286521344  MEMB      15              0.0000000000
      1879        15  DOPE      C318            3.5999962955      -17.8059535319        0.3730764257  MEMB      15              0.0000000000
      1880        15  DOPE      H18X            2.8407090944      -18.5831849729        0.1485944638  MEMB      15              0.0000000000
      1881        15  DOPE      H18Y            3.2852436535      -17.2473835907        1.2779762616  MEMB      15              0.0000000000
      1882        15  DOPE      H18Z            3.6311135221      -17.0808591759       -0.4668484321  MEMB      15              0.0000000000
      1883        16  DOPC      N               0.9501499154       16.6118507135       20.9463164271  MEMB      16              0.0000000000
      1884        16  DOPC      C12             1.8883987075       17.3791598041       20.0176369529  MEMB      16              0.0000000000
      1885        16  DOPC      H12A            2.8402839443       16.8397041104       19.9674283260  MEMB      16              0.0000000000
      1886        16  DOPC      H12B            2.0911535377       18.3571047449       20.4358574566  MEMB      16              0.0000000000
      1887        16  DOPC      C13             1.1556773248       15.1492033566       20.6549321314  MEMB      16              0.0000000000
      1888        16  DOPC      H13A            2.2138434530       14.8774194813       20.6496054442  MEMB      16              0.0000000000
      1889        16  DOPC      H13B            0.6226320827       14.5111338821       21.3244165958  MEMB      16              0.0000000000
      1890        16  DOPC      H13C            0.8374923191       14.9642875906       19.6273939040  MEMB      16              0.0000000000
      1891        16  DOPC      C14            -0.4763423775       16.9696215793       20.6489536022  MEMB      16              0.0000000000
      1892        16  DOPC      H14A           -0.6083375710       17.0268769017       19.5730749079  MEMB      16              0.0000000000
      1893        16  DOPC      H14B           -1.1585607586       16.2165050707       21.0280494010  MEMB      16              0.0000000000
      1894        16  DOPC      H14C           -0.7807375052       17.9065117949       21.1101917421  MEMB      16              0.0000000000
      1895        16  DOPC      C15             1.1767971722       16.8741400701       22.4047464036  MEMB      16              0.0000000000
      1896        16  DOPC      H15A            1.0832568859       17.9320456851       22.6395174776  MEMB      16              0.0000000000
      1897        16  DOPC      H15B            2.1387037565       16.5355015285       22.7667433156  MEMB      16              0.0000000000
      1898        16  DOPC      H15C            0.3914744910       16.3926073884       22.9881961067  MEMB      16              0.0000000000
      1899        16  DOPC      C11             1.4403289459       17.5568815596       18.5301750906  MEMB      16              0.0000000000
      1900        16  DOPC      H11A            0.5893452327       18.2746328875       18.5042236054  MEMB      16              0.0000000000
      1901        16  DOPC      H11B            2.2631648999       18.0413653430       17.9499783939  MEMB      16              0.0000000000
      1902        16  DOPC      P               2.1187778384       15.2902401166       17.4004281831  MEMB      16              0.0000000000
      1903        16  DOPC      O13             1.3493545604       14.0536239061       17.0969523690  MEMB      16              0.0000000000
      1904        16  DOPC      O14             3.1885981080       15.2320706847       18.4329324774  MEMB      16              0.0000000000
      1905        16  DOPC      O12             1.0312927331       16.3301579562       17.9135460932  MEMB      16              0.0000000000
      1906        16  DOPC      O11             2.6673327942       15.9365781748       16.0596861026  MEMB      16              0.0000000000
      1907        16  DOPC      C1              1.8168153944       16.6581734371       15.1617221095  MEMB      16              0.0000000000
      1908        16  DOPC      HA              1.3764484253       17.5467831955       15.6691482465  MEMB      16              0.0000000000
      1909        16  DOPC      HB              0.9807999128       16.0126401090       14.8102682139  MEMB      16              0.0000000000
      1910        16  DOPC      C2              2.6036973813       17.1710845076       13.9127627611  MEMB      16              0.0000000000
      1911        16  DOPC      HS              1.9292970442       17.8211769362       13.3064890622  MEMB      16              0.0000000000
      1912        16  DOPC      O21             3.0698680008       16.0587600276       13.1235497086  MEMB      16              0.0000000000
      1913        16  DOPC      C21             2.1806182067       15.5254309114       12.3103464970  MEMB      16              0.0000000000
      1914        16  DOPC      O22             1.0946288376       15.9901275116       12.0145969704  MEMB      16              0.0000000000
      1915        16  DOPC      C22             2.7014039067       14.1645487284       11.8477261457  MEMB      16              0.0000000000
      1916        16  DOPC      H2R             1.9797090609       13.4070670346       12.2141792640  MEMB      16              0.0000000000
      1917        16  DOPC      H2S             3.6748075069       13.9719826894       12.3324749091  MEMB      16              0.0000000000
      1918        16  DOPC      C3              3.8201149010       18.0582242717       14.3224820871  MEMB      16              0.0000000000
      1919        16  DOPC      HX              4.1804189460       17.7043878728       15.3142277751  MEMB      16              0.0000000000
      1920        16  DOPC      HY              3.4595696244       19.1051533767       14.4688310264  MEMB      16              0.0000000000
      1921        16  DOPC      O31             4.8976437656       17.9364703308       13.3543361018  MEMB      16              0.0000000000
      1922        16  DOPC      C31             5.0247591803       18.9240897221       12.4877388462  MEMB      16              0.0000000000
      1923        16  DOPC      O32             4.5347054638       20.0337191261       12.5998280158  MEMB      16              0.0000000000
      1924        16  DOPC      C32             5.8229982604       18.4430661142       11.2634219282  MEMB      16              0.0000000000
      1925        16  DOPC      H2X             6.9066912170       18.5363699313       11.4725617950  MEMB      16              0.0000000000
      1926        16  DOPC      H2Y             5.5780725513       17.3728841221       11.0890047192  MEMB      16              0.0000000000
      1927        16  DOPC      C23             2.8428930370       14.0371174510       10.3172140264  MEMB      16              0.0000000000
      1928        16  DOPC      H3R             1.8950285707       14.3270420637        9.8113764034  MEMB      16              0.0000000000
      1929        16  DOPC      H3S             3.0418603941       12.9681154671       10.0642003624  MEMB      16              0.0000000000
      1930        16  DOPC      C24             4.0111672864       14.8626190199        9.7696663025  MEMB      16              0.0000000000
      1931        16  DOPC      H4R             4.9673524413       14.4926584214       10.2006162519  MEMB      16              0.0000000000
      1932        16  DOPC      H4S             3.9035826995       15.9248900596       10.0754478818  MEMB      16              0.0000000000
      1933        16  DOPC      C25             4.1052822193       14.8013567092        8.2463816909  MEMB      16              0.0000000000
      1934        16  DOPC      H5R             3.8978143941       13.7723308506        7.8780541015  MEMB      16              0.0000000000
      1935        16  DOPC      H5S             5.1471230495       15.0570633803        7.9426325792  MEMB      16              0.0000000000
      1936        16  DOPC      C26             3.1500175033       15.7940826760        7.5824206165  MEMB      16              0.0000000000
      1937        16  DOPC      H6R             3.3069732778       16.7967530734        8.0360958908  MEMB      16              0.0000000000
      1938        16  DOPC      H6S             2.0983990042       15.4964048098        7.7674086117  MEMB      16              0.0000000000
      1939        16  DOPC      C27             3.4549087876       15.9393719183        6.0950690071  MEMB      16              0.0000000000
      1940        16  DOPC      H7R             4.5515537881       16.0291001747        6.0896440939  MEMB      16              0.0000000000
      1941        16  DOPC      H7S             3.0816329317       16.8970640154        5.6841008439  MEMB      16              0.0000000000
      1942        16  DOPC      C28             3.0314522137       14.7438360477        5.2198426156  MEMB      16              0.0000000000
      1943        16  DOPC      H8R             3.5720159604       13.8521732360        5.6114973391  MEMB      16              0.0000000000
      1944        16  DOPC      H8S             3.4366518093       14.9037066440        4.1941404860  MEMB      16              0.0000000000
      1945        16  DOPC      C29             1.5570599286       14.4335037371        5.1243014240  MEMB      16              0.0000000000
      1946        16  DOPC      H9R             1.3369440250       13.3898503459        4.8477852824  MEMB      16              0.0000000000
      1947        16  DOPC      C210            0.5044824365       15.2447900630        5.3384016247  MEMB      16              0.0000000000
      1948        16  DOPC      H10R           -0.4884103417       14.8196770302        5.1488577344  MEMB      16              0.0000000000
      1949        16  DOPC      C211            0.5002553872       16.7039246724        5.7336608071  MEMB      16              0.0000000000
      1950        16  DOPC      H11R            1.2038345064       17.2740125271        5.0905701614  MEMB      16              0.0000000000
      1951        16  DOPC      H11S            0.8368956420       16.8270329058        6.7871124851  MEMB      16              0.0000000000
      1952        16  DOPC      C212           -0.8624517141       17.4088786624        5.6438158806  MEMB      16              0.0000000000
      1953        16  DOPC      H12R           -0.7253233671       18.4719724703        5.9421783929  MEMB      16              0.0000000000
      1954        16  DOPC      H12S           -1.5605334816       16.9579871318        6.3814232532  MEMB      16              0.0000000000
      1955        16  DOPC      C213           -1.4901059141       17.3748022231        4.2441556795  MEMB      16              0.0000000000
      1956        16  DOPC      H13R           -2.5131229542       17.7876252417        4.3217378942  MEMB      16              0.0000000000
      1957        16  DOPC      H13S           -1.5642219978       16.3194871476        3.9043551071  MEMB      16              0.0000000000
      1958        16  DOPC      C214           -0.7052852111       18.1814944036        3.2006559457  MEMB      16              0.0000000000
      1959        16  DOPC      H14R            0.2690393337       17.6738884814        3.0759170052  MEMB      16              0.0000000000
      1960        16  DOPC      H14S           -0.5221277611       19.2083264207        3.5872576439  MEMB      16              0.0000000000
      1961        16  DOPC      C215           -1.3523622085       18.2715652271        1.8096508459  MEMB      16              0.0000000000
      1962        16  DOPC      H15R           -0.6374274041       18.7625340425        1.1102672058  MEMB      16              0.0000000000
      1963        16  DOPC      H15S           -2.2393260307       18.9380340379        1.8758369435  MEMB      16              0.0000000000
      1964        16  DOPC      C216           -1.7656651899       16.9116703071        1.2196134546  MEMB      16              0.0000000000
      1965        16  DOPC      H16R           -2.2754415872       17.0840777235        0.2444363335  MEMB      16              0.0000000000
      1966        16  DOPC      H16S           -2.4576551534       16.3801126484        1.8880214453  MEMB      16              0.0000000000
      1967        16  DOPC      C217           -0.6150281167       15.9396352412        1.0122683545  MEMB      16              0.0000000000
      1968        16  DOPC      H17R           -0.0528572140       15.7695760109        1.9603404728  MEMB      16              0.0000000000
      1969        16  DOPC      H17S            0.0251580780       16.4657883366        0.2864101155  MEMB      16              0.0000000000
      1970        16  DOPC      C218           -1.0270340181       14.5950108023        0.4246361178  MEMB      16              0.0000000000
      1971        16  DOPC      H18R           -1.8921302827       14.7117755204       -0.2608287314  MEMB      16              0.0000000000
      1972        16  DOPC      H18S           -1.2960730033       13.8783978458        1.2289173430  MEMB      16              0.0000000000
      1973        16  DOPC      H18T           -0.1818528935       14.1704402088       -0.1604389658  MEMB      16              0.0000000000
      1974        16  DOPC      C33             5.4661809686       19.2540553249        9.9895671456  MEMB      16              0.0000000000
      1975        16  DOPC      H3X             6.0700479579       18.8708643820        9.1380616663  MEMB      16              0.0000000000
      1976        16  DOPC      H3Y             5.7221722812       20.3284435933       10.1291594978  MEMB      16              0.0000000000
      1977        16  DOPC      C34             3.9740865617       19.0936573218        9.6761097147  MEMB      16              0.0000000000
      1978        16  DOPC      H4X             3.3896048182       19.5294661564       10.5172232279  MEMB      16              0.0000000000
      1979        16  DOPC      H4Y             3.7397057506       18.0108045941        9.6411956865  MEMB      16              0.0000000000
      1980        16  DOPC      C35             3.4223150093       19.7547131914        8.4119258864  MEMB      16              0.0000000000
      1981        16  DOPC      H5X             3.8363240074       19.2847646168        7.4925887591  MEMB      16              0.0000000000
      1982        16  DOPC      H5Y             3.6969931211       20.8326230923        8.4078271825  MEMB      16              0.0000000000
      1983        16  DOPC      C36             1.8909819496       19.5990396554        8.4363733245  MEMB      16              0.0000000000
      1984        16  DOPC      H6X             1.6415542632       18.5148761939        8.4965809783  MEMB      16              0.0000000000
      1985        16  DOPC      H6Y             1.5026118773       20.0803680757        9.3632742396  MEMB      16              0.0000000000
      1986        16  DOPC      C37             1.1650116835       20.2145414927        7.2405935945  MEMB      16              0.0000000000
      1987        16  DOPC      H7X             1.5404908229       19.7173640741        6.3215767955  MEMB      16              0.0000000000
      1988        16  DOPC      H7Y             0.0780857798       19.9926225327        7.3283319290  MEMB      16              0.0000000000
      1989        16  DOPC      C38             1.3722973734       21.7352845571        7.1827640073  MEMB      16              0.0000000000
      1990        16  DOPC      H8X             2.4556629831       21.9202761496        7.0192014294  MEMB      16              0.0000000000
      1991        16  DOPC      H8Y             1.1507274095       22.1524098606        8.1901768644  MEMB      16              0.0000000000
      1992        16  DOPC      C39             0.5540003324       22.4693514011        6.1526405059  MEMB      16              0.0000000000
      1993        16  DOPC      H9X            -0.4374233959       22.8097334629        6.4849045108  MEMB      16              0.0000000000
      1994        16  DOPC      C310            0.9298880276       22.6893654670        4.8831854532  MEMB      16              0.0000000000
      1995        16  DOPC      H10X            0.2571107357       23.2221269958        4.1941557354  MEMB      16              0.0000000000
      1996        16  DOPC      C311            2.2267718878       22.2244345909        4.2799464290  MEMB      16              0.0000000000
      1997        16  DOPC      H11X            3.0360454032       22.0527976316        5.0255555008  MEMB      16              0.0000000000
      1998        16  DOPC      H11Y            2.6218198587       22.9374760792        3.5232698595  MEMB      16              0.0000000000
      1999        16  DOPC      C312            1.8515430203       20.8998722245        3.6262738135  MEMB      16              0.0000000000
      2000        16  DOPC      H12X            1.0967317052       21.0610393771        2.8217902792  MEMB      16              0.0000000000
      2001        16  DOPC      H12Y            1.4025134061       20.1952874244        4.3631743787  MEMB      16              0.0000000000
      2002        16  DOPC      C313            3.0291428517       20.1819414874        3.0141849738  MEMB      16              0.0000000000
      2003        16  DOPC      H13X            3.5121303592       20.8530713899        2.2721379972  MEMB      16              0.0000000000
      2004        16  DOPC      H13Y            3.7756295818       19.9184816453        3.8006618136  MEMB      16              0.0000000000
      2005        16  DOPC      C314            2.5088424908       18.9030798379        2.3706200146  MEMB      16              0.0000000000
      2006        16  DOPC      H14X            2.1143173824       18.2608684283        3.1832297141  MEMB      16              0.0000000000
      2007        16  DOPC      H14Y            1.7073557908       19.1205394060        1.6279720028  MEMB      16              0.0000000000
      2008        16  DOPC      C315            3.6255728398       18.1567460114        1.7031495534  MEMB      16              0.0000000000
      2009        16  DOPC      H15X            4.5217802264       18.4143483122        2.2975152438  MEMB      16              0.0000000000
      2010        16  DOPC      H15Y            3.7413959368       18.6361554287        0.7105392212  MEMB      16              0.0000000000
      2011        16  DOPC      C316            3.5087455352       16.6185386051        1.7108331851  MEMB      16              0.0000000000
      2012        16  DOPC      H16X            4.5256781831       16.1811821231        1.7936487255  MEMB      16              0.0000000000
      2013        16  DOPC      H16Y            2.9549934993       16.3082649867        2.6223988753  MEMB      16              0.0000000000
      2014        16  DOPC      C317            2.8451462492       16.0163599237        0.4661056962  MEMB      16              0.0000000000
      2015        16  DOPC      H17X            1.8646446827       16.4991479063        0.4354577737  MEMB      16              0.0000000000
      2016        16  DOPC      H17Y            3.3333128974       16.3083919800       -0.4851825216  MEMB      16              0.0000000000
      2017        16  DOPC      C318            2.7178622145       14.4905133775        0.4869607994  MEMB      16              0.0000000000
      2018        16  DOPC      H18X            2.2662245093       14.1506576065        1.4438980429  MEMB      16              0.0000000000
      2019        16  DOPC      H18Y            2.0758941050       14.1381022387       -0.3496464224  MEMB      16              0.0000000000
      2020        16  DOPC      H18Z            3.7164047578       14.0149194913        0.3757562510  MEMB      16              0.0000000000
      2021        17  23SM      N              15.0390466640        6.4857303479       27.9537747649  MEMB      17              0.0000000000
      2022        17  23SM      C15            13.8676592786        6.7920489332       27.0675849282  MEMB      17              0.0000000000
      2023        17  23SM      H15A           12.9061206450        6.5483968897       27.4904594315  MEMB      17              0.0000000000
      2024        17  23SM      H15B           13.9825929825        6.3063876491       26.1029900381  MEMB      17              0.0000000000
      2025        17  23SM      H15C           13.8935932209        7.8521106671       26.8093765154  MEMB      17              0.0000000000
      2026        17  23SM      C14            14.8171954180        7.2197805081       29.2440160980  MEMB      17              0.0000000000
      2027        17  23SM      H14A           13.9380688105        6.8331354721       29.7528335822  MEMB      17              0.0000000000
      2028        17  23SM      H14B           14.6906502765        8.2778005332       29.0552171221  MEMB      17              0.0000000000
      2029        17  23SM      H14C           15.6509478587        7.0472362159       29.9130889991  MEMB      17              0.0000000000
      2030        17  23SM      C13            15.1811897561        5.0340271959       28.2673322753  MEMB      17              0.0000000000
      2031        17  23SM      H13A           16.0557807284        4.8627932943       28.9061484719  MEMB      17              0.0000000000
      2032        17  23SM      H13B           15.3710963744        4.4675314650       27.3637977461  MEMB      17              0.0000000000
      2033        17  23SM      H13C           14.3075518811        4.6577643955       28.7912418287  MEMB      17              0.0000000000
      2034        17  23SM      C12            16.2974301934        7.0252714776       27.2732109862  MEMB      17              0.0000000000
      2035        17  23SM      H12A           17.1409949630        6.9378832249       27.9444392920  MEMB      17              0.0000000000
      2036        17  23SM      H12B           16.1746470135        8.0963109628       27.0919197870  MEMB      17              0.0000000000
      2037        17  23SM      C11            16.6709665037        6.4519289552       25.8784584071  MEMB      17              0.0000000000
      2038        17  23SM      H11A           16.7660307298        5.3447475856       25.9527123030  MEMB      17              0.0000000000
      2039        17  23SM      H11B           17.6837331409        6.8375615092       25.6033630567  MEMB      17              0.0000000000
      2040        17  23SM      P              15.5836764261        8.2930428644       24.3425751289  MEMB      17              0.0000000000
      2041        17  23SM      O13            14.3261774624        8.3490078877       23.5652267709  MEMB      17              0.0000000000
      2042        17  23SM      O14            15.7630017054        9.2082977640       25.4878702935  MEMB      17              0.0000000000
      2043        17  23SM      O11            16.8714947769        8.2607801927       23.3842502434  MEMB      17              0.0000000000
      2044        17  23SM      O12            15.6939378608        6.7932726923       24.8830083445  MEMB      17              0.0000000000
      2045        17  23SM      C1S            17.3982895614        9.4287969378       22.7328045930  MEMB      17              0.0000000000
      2046        17  23SM      H1S            18.4886089443        9.5059864578       22.9317718872  MEMB      17              0.0000000000
      2047        17  23SM      H1T            16.9525835147       10.3765434716       23.1253229975  MEMB      17              0.0000000000
      2048        17  23SM      NF             15.7663147329        9.3326361895       20.9379109060  MEMB      17              0.0000000000
      2049        17  23SM      HNF            15.3648043393        8.4317179374       20.8503598755  MEMB      17              0.0000000000
      2050        17  23SM      C2S            17.1712173953        9.3988549604       21.1833069815  MEMB      17              0.0000000000
      2051        17  23SM      H2S            17.5655609121       10.3505798779       20.7554668086  MEMB      17              0.0000000000
      2052        17  23SM      C3S            17.9026991327        8.2278445589       20.4796870383  MEMB      17              0.0000000000
      2053        17  23SM      H3S            17.5140803915        7.2563156412       20.8518539837  MEMB      17              0.0000000000
      2054        17  23SM      O3             19.3038280092        8.2219684621       20.7184915103  MEMB      17              0.0000000000
      2055        17  23SM      HO3            19.4497477016        8.8626283400       21.4152923292  MEMB      17              0.0000000000
      2056        17  23SM      C4S            17.6143156919        8.2721779684       18.9813263930  MEMB      17              0.0000000000
      2057        17  23SM      H4S            16.7981515853        7.6103340214       18.6614777774  MEMB      17              0.0000000000
      2058        17  23SM      C5S            18.2435623599        9.0002841357       18.0350494478  MEMB      17              0.0000000000
      2059        17  23SM      H5S            19.0789117535        9.6475996689       18.3497390354  MEMB      17              0.0000000000
      2060        17  23SM      C6S            17.9418536049        9.0346570887       16.5512222849  MEMB      17              0.0000000000
      2061        17  23SM      H6S            18.8861353054        8.9186373873       15.9741316642  MEMB      17              0.0000000000
      2062        17  23SM      H6T            17.5320078184       10.0355624503       16.3078725611  MEMB      17              0.0000000000
      2063        17  23SM      C7S            16.9180397174        8.0875027092       15.8940188296  MEMB      17              0.0000000000
      2064        17  23SM      H7S            15.9577150165        8.1702255954       16.4505917053  MEMB      17              0.0000000000
      2065        17  23SM      H7T            17.2633985847        7.0346873921       15.9487163997  MEMB      17              0.0000000000
      2066        17  23SM      C8S            16.6362101754        8.4636561118       14.4215212343  MEMB      17              0.0000000000
      2067        17  23SM      H8S            16.4621241920        9.5590779831       14.3227656766  MEMB      17              0.0000000000
      2068        17  23SM      H8T            15.7138660578        7.9308090334       14.1068698541  MEMB      17              0.0000000000
      2069        17  23SM      C9S            17.7040376195        8.0229031531       13.4228138092  MEMB      17              0.0000000000
      2070        17  23SM      H9S            17.9069851798        6.9417465790       13.5893539513  MEMB      17              0.0000000000
      2071        17  23SM      H9T            18.6483039996        8.5764245371       13.6166670980  MEMB      17              0.0000000000
      2072        17  23SM      C10S           17.2755758585        8.1923630644       11.9510406534  MEMB      17              0.0000000000
      2073        17  23SM      H10S           17.2774598895        9.2756156631       11.6823738677  MEMB      17              0.0000000000
      2074        17  23SM      H10T           16.2586852678        7.7846292389       11.7712649429  MEMB      17              0.0000000000
      2075        17  23SM      C11S           18.2453849727        7.4219045512       11.0514436975  MEMB      17              0.0000000000
      2076        17  23SM      H11S           18.1886381755        6.3325507609       11.2506595192  MEMB      17              0.0000000000
      2077        17  23SM      H11T           19.2186919932        7.7436990123       11.4483699418  MEMB      17              0.0000000000
      2078        17  23SM      C12S           18.0949048178        7.6985470343        9.5446653302  MEMB      17              0.0000000000
      2079        17  23SM      H12S           18.4365467773        8.7317558540        9.3420595703  MEMB      17              0.0000000000
      2080        17  23SM      H12T           17.0152123048        7.6326980016        9.2873733064  MEMB      17              0.0000000000
      2081        17  23SM      C13S           18.8862920854        6.7281827713        8.6473988888  MEMB      17              0.0000000000
      2082        17  23SM      H13S           18.5130010390        5.6993799051        8.8372456852  MEMB      17              0.0000000000
      2083        17  23SM      H13T           19.9543150683        6.7526117558        8.9559336736  MEMB      17              0.0000000000
      2084        17  23SM      C14S           18.8136737710        7.0115444499        7.1294865807  MEMB      17              0.0000000000
      2085        17  23SM      H14S           19.5432218086        6.3376641084        6.6262397091  MEMB      17              0.0000000000
      2086        17  23SM      H14T           19.1364457163        8.0550528509        6.9164585568  MEMB      17              0.0000000000
      2087        17  23SM      C15S           17.4301235276        6.7633175127        6.4986128590  MEMB      17              0.0000000000
      2088        17  23SM      H15S           16.9069090659        7.7409216521        6.4884440330  MEMB      17              0.0000000000
      2089        17  23SM      H15T           16.8442199414        6.0690276361        7.1409946384  MEMB      17              0.0000000000
      2090        17  23SM      C16S           17.4773215688        6.1871126819        5.0648314621  MEMB      17              0.0000000000
      2091        17  23SM      H16S           16.5520807436        5.6145626960        4.8345156448  MEMB      17              0.0000000000
      2092        17  23SM      H16T           18.3312444928        5.4804132318        4.9837249309  MEMB      17              0.0000000000
      2093        17  23SM      C17S           17.6539588173        7.2929335791        4.0208681730  MEMB      17              0.0000000000
      2094        17  23SM      H17S           18.5894959075        7.7965906236        4.3365821157  MEMB      17              0.0000000000
      2095        17  23SM      H17T           16.8426234123        8.0514547711        4.1125939967  MEMB      17              0.0000000000
      2096        17  23SM      C18S           17.8072557721        6.8521919746        2.5524420351  MEMB      17              0.0000000000
      2097        17  23SM      H18S           18.8320014618        6.4590653317        2.3755149593  MEMB      17              0.0000000000
      2098        17  23SM      H18T           17.6784405653        7.7462053793        1.8967055395  MEMB      17              0.0000000000
      2099        17  23SM      H18U           17.0844831352        6.0743693237        2.2381021982  MEMB      17              0.0000000000
      2100        17  23SM      C1F            14.9428545637       10.3283235294       21.2012388527  MEMB      17              0.0000000000
      2101        17  23SM      OF             15.3443775001       11.4339603408       21.5480413656  MEMB      17              0.0000000000
      2102        17  23SM      C2F            13.5124049013        9.9725717971       21.0916355508  MEMB      17              0.0000000000
      2103        17  23SM      H2F            12.9417033345       10.5554070606       21.8464130508  MEMB      17              0.0000000000
      2104        17  23SM      H2G            13.3852257866        8.8902575793       21.3159904519  MEMB      17              0.0000000000
      2105        17  23SM      C3F            12.9829697300       10.2752991349       19.6821159117  MEMB      17              0.0000000000
      2106        17  23SM      H3F            13.0156552060       11.3728846992       19.4932269610  MEMB      17              0.0000000000
      2107        17  23SM      H3G            11.9170953514        9.9530804062       19.7155488534  MEMB      17              0.0000000000
      2108        17  23SM      C4F            13.6293938341        9.5399002819       18.4799897350  MEMB      17              0.0000000000
      2109        17  23SM      H4F            13.7479103445        8.4601922988       18.7108219868  MEMB      17              0.0000000000
      2110        17  23SM      H4G            14.6385565141        9.9565001279       18.2721684824  MEMB      17              0.0000000000
      2111        17  23SM      C5F            12.7090537157        9.6981532757       17.2537230419  MEMB      17              0.0000000000
      2112        17  23SM      H5F            12.6741002844       10.7709478910       16.9654226454  MEMB      17              0.0000000000
      2113        17  23SM      H5G            11.6905900843        9.4025924430       17.5993576878  MEMB      17              0.0000000000
      2114        17  23SM      C6F            13.0094223655        8.8446623155       16.0187287683  MEMB      17              0.0000000000
      2115        17  23SM      H6F            12.0652194237        8.3833624554       15.6539011317  MEMB      17              0.0000000000
      2116        17  23SM      H6G            13.6838197552        8.0130512902       16.3158508455  MEMB      17              0.0000000000
      2117        17  23SM      C7F            13.6286933137        9.6377695530       14.8599076105  MEMB      17              0.0000000000
      2118        17  23SM      H7F            13.9955746626        8.9123532613       14.1071592593  MEMB      17              0.0000000000
      2119        17  23SM      H7G            14.5023908608       10.1894931437       15.2747056866  MEMB      17              0.0000000000
      2120        17  23SM      C8F            12.7110006308       10.6143559529       14.0951002724  MEMB      17              0.0000000000
      2121        17  23SM      H8F            13.3034152431       11.0783028269       13.2735822541  MEMB      17              0.0000000000
      2122        17  23SM      H8G            12.3906420062       11.4327275026       14.7660371314  MEMB      17              0.0000000000
      2123        17  23SM      C9F            11.5333905603        9.9838433693       13.3493012698  MEMB      17              0.0000000000
      2124        17  23SM      H9F            11.0182370471       10.7951962863       12.7818953576  MEMB      17              0.0000000000
      2125        17  23SM      H9G            10.8005845438        9.5533792730       14.0636792760  MEMB      17              0.0000000000
      2126        17  23SM      C10F           11.9952626973        8.9103746926       12.3524794992  MEMB      17              0.0000000000
      2127        17  23SM      H10F           12.3658141485        8.0204677858       12.9091832468  MEMB      17              0.0000000000
      2128        17  23SM      H10G           12.8463118465        9.3119037497       11.7559055008  MEMB      17              0.0000000000
      2129        17  23SM      C11F           10.8846052155        8.4681605444       11.3967847979  MEMB      17              0.0000000000
      2130        17  23SM      H11F           10.5879401785        9.3274151273       10.7571818452  MEMB      17              0.0000000000
      2131        17  23SM      H11G            9.9934880474        8.1855111634       11.9967350407  MEMB      17              0.0000000000
      2132        17  23SM      C12F           11.2822753087        7.2679155246       10.5210663296  MEMB      17              0.0000000000
      2133        17  23SM      H12F           10.4299029977        7.0197407925        9.8522574071  MEMB      17              0.0000000000
      2134        17  23SM      H12G           11.4627904606        6.3882521588       11.1789299754  MEMB      17              0.0000000000
      2135        17  23SM      C13F           12.5214844558        7.4926429059        9.6453246338  MEMB      17              0.0000000000
      2136        17  23SM      H13F           12.6979353635        6.5688896899        9.0482719146  MEMB      17              0.0000000000
      2137        17  23SM      H13G           13.4193031212        7.6479332842       10.2846663499  MEMB      17              0.0000000000
      2138        17  23SM      C14F           12.3619663868        8.6901012558        8.7016397554  MEMB      17              0.0000000000
      2139        17  23SM      H14F           12.1196813711        9.6044412400        9.2860073191  MEMB      17              0.0000000000
      2140        17  23SM      H14G           11.5140993842        8.5024464413        8.0069277381  MEMB      17              0.0000000000
      2141        17  23SM      C15F           13.6319776778        8.9890633640        7.9108843225  MEMB      17              0.0000000000
      2142        17  23SM      H15F           14.4686756658        9.1918340464        8.6183716966  MEMB      17              0.0000000000
      2143        17  23SM      H15G           13.4658598686        9.9072000537        7.3047078238  MEMB      17              0.0000000000
      2144        17  23SM      C16F           14.0492595816        7.8670198428        6.9670034263  MEMB      17              0.0000000000
      2145        17  23SM      H16F           14.2603415639        6.9246226320        7.5167351418  MEMB      17              0.0000000000
      2146        17  23SM      H16G           14.9926921648        8.1960593340        6.4817555112  MEMB      17              0.0000000000
      2147        17  23SM      C17F           13.0480409304        7.6189011709        5.8413781079  MEMB      17              0.0000000000
      2148        17  23SM      H17F           12.9056520303        8.5887792043        5.3094481539  MEMB      17              0.0000000000
      2149        17  23SM      H17G           12.0615326494        7.2821117528        6.2207487229  MEMB      17              0.0000000000
      2150        17  23SM      C18F           13.6212405849        6.5920183613        4.8736421042  MEMB      17              0.0000000000
      2151        17  23SM      H18F           13.3566374309        5.5539138521        5.1687298089  MEMB      17              0.0000000000
      2152        17  23SM      H18G           14.7280506120        6.6792167103        4.9365328726  MEMB      17              0.0000000000
      2153        17  23SM      C19F           13.2581473582        6.8712342916        3.4228547709  MEMB      17              0.0000000000
      2154        17  23SM      H19F           13.3104429624        7.9724077332        3.2502062146  MEMB      17              0.0000000000
      2155        17  23SM      H19G           12.2296969812        6.5152055237        3.2260316443  MEMB      17              0.0000000000
      2156        17  23SM      C20F           14.2666961277        6.2230781185        2.4820956105  MEMB      17              0.0000000000
      2157        17  23SM      H20F           15.2523610161        6.5727894622        2.8457398986  MEMB      17              0.0000000000
      2158        17  23SM      H20G           14.1461844053        6.6032632598        1.4464095908  MEMB      17              0.0000000000
      2159        17  23SM      C21F           14.2074083023        4.6907025199        2.4755881544  MEMB      17              0.0000000000
      2160        17  23SM      H21F           14.3292950970        4.2854367705        3.5045437178  MEMB      17              0.0000000000
      2161        17  23SM      H21G           15.0720971319        4.3148526600        1.8852776319  MEMB      17              0.0000000000
      2162        17  23SM      C22F           12.9169186799        4.1442436924        1.8493005508  MEMB      17              0.0000000000
      2163        17  23SM      H22F           12.2454732334        4.9822458305        1.5634140992  MEMB      17              0.0000000000
      2164        17  23SM      H22G           12.3641727539        3.5436150809        2.6016422779  MEMB      17              0.0000000000
      2165        17  23SM      C23F           13.1816351577        3.2819723957        0.6198652478  MEMB      17              0.0000000000
      2166        17  23SM      H23F           13.7253828603        3.8584741449       -0.1554794194  MEMB      17              0.0000000000
      2167        17  23SM      H23G           12.2277819473        2.9083455332        0.1875992836  MEMB      17              0.0000000000
      2168        17  23SM      H23H           13.8057396820        2.4060735917        0.9003856534  MEMB      17              0.0000000000
      2169        18  DOPC      N              15.2609177729      -11.3117039768       20.4303640675  MEMB      18              0.0000000000
      2170        18  DOPC      C12            16.4330081445      -11.0050960385       19.5021843572  MEMB      18              0.0000000000
      2171        18  DOPC      H12A           16.4529478911      -11.7523002949       18.7215678118  MEMB      18              0.0000000000
      2172        18  DOPC      H12B           17.3496348026      -11.0647750207       20.0700945327  MEMB      18              0.0000000000
      2173        18  DOPC      C13            15.6352782282      -12.3337774105       21.4504025278  MEMB      18              0.0000000000
      2174        18  DOPC      H13A           16.3528863809      -11.9069128897       22.1430954076  MEMB      18              0.0000000000
      2175        18  DOPC      H13B           14.7493735216      -12.6500996797       21.9942934357  MEMB      18              0.0000000000
      2176        18  DOPC      H13C           16.0532607960      -13.2161029087       20.9861688463  MEMB      18              0.0000000000
      2177        18  DOPC      C14            14.0433128003      -11.7762734466       19.6693873351  MEMB      18              0.0000000000
      2178        18  DOPC      H14A           13.6364195829      -10.9590189587       19.0631940724  MEMB      18              0.0000000000
      2179        18  DOPC      H14B           14.2595918494      -12.5990192198       19.0029079667  MEMB      18              0.0000000000
      2180        18  DOPC      H14C           13.2505864451      -12.1290532187       20.3262831230  MEMB      18              0.0000000000
      2181        18  DOPC      C15            14.8883321612      -10.0350480991       21.1186072405  MEMB      18              0.0000000000
      2182        18  DOPC      H15A           15.7105534561       -9.6019353764       21.6707693500  MEMB      18              0.0000000000
      2183        18  DOPC      H15B           14.0433578799      -10.1820784701       21.7721884014  MEMB      18              0.0000000000
      2184        18  DOPC      H15C           14.6077036113       -9.2698844256       20.3806940458  MEMB      18              0.0000000000
      2185        18  DOPC      C11            16.4119032260       -9.6373417696       18.7864785956  MEMB      18              0.0000000000
      2186        18  DOPC      H11A           16.5582999088       -8.8029546519       19.5157367910  MEMB      18              0.0000000000
      2187        18  DOPC      H11B           17.2362493852       -9.5633668971       18.0432042496  MEMB      18              0.0000000000
      2188        18  DOPC      P              14.3771950284       -8.2291245820       17.8557884807  MEMB      18              0.0000000000
      2189        18  DOPC      O13            14.6388097931       -7.2665910700       18.9331168989  MEMB      18              0.0000000000
      2190        18  DOPC      O14            12.9958268104       -8.6754796371       17.5993280095  MEMB      18              0.0000000000
      2191        18  DOPC      O12            15.1808607857       -9.5620015417       18.1157428987  MEMB      18              0.0000000000
      2192        18  DOPC      O11            15.0706408057       -7.8451332042       16.4615799405  MEMB      18              0.0000000000
      2193        18  DOPC      C1             14.7579900517       -8.7728214923       15.3783856457  MEMB      18              0.0000000000
      2194        18  DOPC      HA             13.8114739513       -8.4557889092       14.8857178993  MEMB      18              0.0000000000
      2195        18  DOPC      HB             14.6019825628       -9.8186157133       15.7486441063  MEMB      18              0.0000000000
      2196        18  DOPC      C2             15.8505952127       -8.9202218941       14.2626999435  MEMB      18              0.0000000000
      2197        18  DOPC      HS             16.8299543835       -9.0379450362       14.7795530593  MEMB      18              0.0000000000
      2198        18  DOPC      O21            15.8260637648       -7.7419733101       13.4299706584  MEMB      18              0.0000000000
      2199        18  DOPC      C21            16.8684777902       -7.5500591976       12.6451926706  MEMB      18              0.0000000000
      2200        18  DOPC      O22            17.8628091378       -8.2485111244       12.5751213400  MEMB      18              0.0000000000
      2201        18  DOPC      C22            16.6301464958       -6.2751580170       11.8548536286  MEMB      18              0.0000000000
      2202        18  DOPC      H2R            16.6098100790       -5.4239091844       12.5679514845  MEMB      18              0.0000000000
      2203        18  DOPC      H2S            15.6378694324       -6.3657593705       11.3672836783  MEMB      18              0.0000000000
      2204        18  DOPC      C3             15.5855705430      -10.2169719047       13.4116561024  MEMB      18              0.0000000000
      2205        18  DOPC      HX             14.7693496060       -9.9561453148       12.6960903311  MEMB      18              0.0000000000
      2206        18  DOPC      HY             15.1979679317      -11.0116210624       14.0846512760  MEMB      18              0.0000000000
      2207        18  DOPC      O31            16.7803691299      -10.7159036918       12.7634885901  MEMB      18              0.0000000000
      2208        18  DOPC      C31            16.6122056560      -11.2553684691       11.5621909656  MEMB      18              0.0000000000
      2209        18  DOPC      O32            15.5354427521      -11.4695000477       11.0318019543  MEMB      18              0.0000000000
      2210        18  DOPC      C32            17.9869709495      -11.5684284887       10.9620923265  MEMB      18              0.0000000000
      2211        18  DOPC      H2X            18.7557644934      -10.9621532086       11.4868416163  MEMB      18              0.0000000000
      2212        18  DOPC      H2Y            18.1938442379      -12.6419061169       11.1497814551  MEMB      18              0.0000000000
      2213        18  DOPC      C23            17.7410039251       -6.0768286530       10.8141477154  MEMB      18              0.0000000000
      2214        18  DOPC      H3R            18.0830352786       -7.0563070609       10.4041540709  MEMB      18              0.0000000000
      2215        18  DOPC      H3S            18.6046977051       -5.5977891014       11.3077854558  MEMB      18              0.0000000000
      2216        18  DOPC      C24            17.3235882102       -5.2114867760        9.6357258221  MEMB      18              0.0000000000
      2217        18  DOPC      H4R            18.2281472375       -4.7642414432        9.1667563736  MEMB      18              0.0000000000
      2218        18  DOPC      H4S            16.6670533290       -4.3859134070        9.9859418818  MEMB      18              0.0000000000
      2219        18  DOPC      C25            16.6296150459       -6.0588032644        8.5776934915  MEMB      18              0.0000000000
      2220        18  DOPC      H5R            15.7217162776       -6.5178287226        9.0325298362  MEMB      18              0.0000000000
      2221        18  DOPC      H5S            17.3026018124       -6.8842314300        8.2659387187  MEMB      18              0.0000000000
      2222        18  DOPC      C26            16.2489519646       -5.2302531200        7.3586160100  MEMB      18              0.0000000000
      2223        18  DOPC      H6R            17.1251729817       -5.0085535918        6.7155985354  MEMB      18              0.0000000000
      2224        18  DOPC      H6S            15.8496389856       -4.2550309744        7.7374700101  MEMB      18              0.0000000000
      2225        18  DOPC      C27            15.1202953916       -5.8794530020        6.5642233455  MEMB      18              0.0000000000
      2226        18  DOPC      H7R            14.6249051623       -5.0449767498        6.0243612825  MEMB      18              0.0000000000
      2227        18  DOPC      H7S            14.4129350637       -6.3018886903        7.3141925742  MEMB      18              0.0000000000
      2228        18  DOPC      C28            15.4656001769       -6.9815353390        5.5609915686  MEMB      18              0.0000000000
      2229        18  DOPC      H8R            16.0097078495       -7.7988200366        6.0749895337  MEMB      18              0.0000000000
      2230        18  DOPC      H8S            16.1215991023       -6.5805610848        4.7599703765  MEMB      18              0.0000000000
      2231        18  DOPC      C29            14.1303389326       -7.4320181689        5.0207631918  MEMB      18              0.0000000000
      2232        18  DOPC      H9R            13.6174240861       -6.6875216708        4.3928442318  MEMB      18              0.0000000000
      2233        18  DOPC      C210           13.5354326011       -8.6181818359        5.2340028411  MEMB      18              0.0000000000
      2234        18  DOPC      H10R           12.5338208888       -8.7904087226        4.8320828569  MEMB      18              0.0000000000
      2235        18  DOPC      C211           14.0710311964       -9.7658161920        6.0471222941  MEMB      18              0.0000000000
      2236        18  DOPC      H11R           13.2563066325      -10.3112934202        6.5704252077  MEMB      18              0.0000000000
      2237        18  DOPC      H11S           14.7864496384       -9.4214308145        6.8263373317  MEMB      18              0.0000000000
      2238        18  DOPC      C212           14.7948856622      -10.6656373770        5.0291283040  MEMB      18              0.0000000000
      2239        18  DOPC      H12R           15.5429271588      -10.0258235335        4.4993383443  MEMB      18              0.0000000000
      2240        18  DOPC      H12S           14.0831536763      -11.0547938596        4.2658502696  MEMB      18              0.0000000000
      2241        18  DOPC      C213           15.5976312416      -11.8390058683        5.6027763512  MEMB      18              0.0000000000
      2242        18  DOPC      H13R           14.9601577602      -12.7447101142        5.6739766084  MEMB      18              0.0000000000
      2243        18  DOPC      H13S           15.9128820178      -11.5771190679        6.6379727169  MEMB      18              0.0000000000
      2244        18  DOPC      C214           16.8687140128      -12.1232543656        4.7716353691  MEMB      18              0.0000000000
      2245        18  DOPC      H14R           17.4586569846      -12.9211325510        5.2715157319  MEMB      18              0.0000000000
      2246        18  DOPC      H14S           17.4940890996      -11.2011731855        4.7762619593  MEMB      18              0.0000000000
      2247        18  DOPC      C215           16.6321594646      -12.5091113363        3.2920897751  MEMB      18              0.0000000000
      2248        18  DOPC      H15R           16.0847962046      -11.6948361209        2.7898761751  MEMB      18              0.0000000000
      2249        18  DOPC      H15S           15.9656367710      -13.3848508873        3.2721138692  MEMB      18              0.0000000000
      2250        18  DOPC      C216           17.9698221195      -12.7785956460        2.5622871170  MEMB      18              0.0000000000
      2251        18  DOPC      H16R           18.3550567811      -13.7162157990        3.0104809018  MEMB      18              0.0000000000
      2252        18  DOPC      H16S           18.6639661441      -11.9484604145        2.8246340142  MEMB      18              0.0000000000
      2253        18  DOPC      C217           18.0440854392      -12.9631330984        1.0266987468  MEMB      18              0.0000000000
      2254        18  DOPC      H17R           17.7498814827      -13.9915865563        0.7531781772  MEMB      18              0.0000000000
      2255        18  DOPC      H17S           19.1145540585      -12.8980645151        0.7202245470  MEMB      18              0.0000000000
      2256        18  DOPC      C218           17.2242569753      -12.0080437239        0.1638390644  MEMB      18              0.0000000000
      2257        18  DOPC      H18R           16.9512591276      -12.5034990736       -0.7904621252  MEMB      18              0.0000000000
      2258        18  DOPC      H18S           17.7881981205      -11.0797961418       -0.0613673475  MEMB      18              0.0000000000
      2259        18  DOPC      H18T           16.2724539849      -11.7626353891        0.6664757017  MEMB      18              0.0000000000
      2260        18  DOPC      C33            18.0557328370      -11.2914065225        9.4439977415  MEMB      18              0.0000000000
      2261        18  DOPC      H3X            17.3155514938      -11.9204299211        8.8991857082  MEMB      18              0.0000000000
      2262        18  DOPC      H3Y            19.0663606145      -11.5986737025        9.0899208932  MEMB      18              0.0000000000
      2263        18  DOPC      C34            17.8216652488       -9.8153270636        9.0783027447  MEMB      18              0.0000000000
      2264        18  DOPC      H4X            18.4875004751       -9.1589559885        9.6826788100  MEMB      18              0.0000000000
      2265        18  DOPC      H4Y            16.7672057907       -9.5480397843        9.3185223586  MEMB      18              0.0000000000
      2266        18  DOPC      C35            18.0651436921       -9.5498105231        7.5863091204  MEMB      18              0.0000000000
      2267        18  DOPC      H5X            17.5222321699       -8.6506162362        7.2425235149  MEMB      18              0.0000000000
      2268        18  DOPC      H5Y            17.6762504454      -10.4126238294        7.0060675957  MEMB      18              0.0000000000
      2269        18  DOPC      C36            19.5496883361       -9.3865211712        7.2828611808  MEMB      18              0.0000000000
      2270        18  DOPC      H6X            19.9605401183       -8.4574129366        7.7270370916  MEMB      18              0.0000000000
      2271        18  DOPC      H6Y            20.0254071206      -10.2637104041        7.7607702670  MEMB      18              0.0000000000
      2272        18  DOPC      C37            19.9219999476       -9.4849164166        5.8099737703  MEMB      18              0.0000000000
      2273        18  DOPC      H7X            21.0265066179       -9.6350593814        5.7397945142  MEMB      18              0.0000000000
      2274        18  DOPC      H7Y            19.4399102510      -10.4140646102        5.4229786877  MEMB      18              0.0000000000
      2275        18  DOPC      C38            19.5389740225       -8.2664255151        4.9716702084  MEMB      18              0.0000000000
      2276        18  DOPC      H8X            20.1160274040       -7.3686834554        5.2833916600  MEMB      18              0.0000000000
      2277        18  DOPC      H8Y            18.4603300275       -8.0302172579        5.0995277609  MEMB      18              0.0000000000
      2278        18  DOPC      C39            19.9126502254       -8.7155753582        3.5883611193  MEMB      18              0.0000000000
      2279        18  DOPC      H9X            20.9915379420       -8.8803764944        3.4459070684  MEMB      18              0.0000000000
      2280        18  DOPC      C310           19.0776872233       -9.0172302387        2.5870816912  MEMB      18              0.0000000000
      2281        18  DOPC      H10X           19.4985466478       -9.3774326204        1.6363040790  MEMB      18              0.0000000000
      2282        18  DOPC      C311           17.5801887932       -8.9611139913        2.6277849491  MEMB      18              0.0000000000
      2283        18  DOPC      H11X           17.1926488342       -8.3807713400        3.4921992098  MEMB      18              0.0000000000
      2284        18  DOPC      H11Y           17.1816525785       -9.9848127273        2.7248187959  MEMB      18              0.0000000000
      2285        18  DOPC      C312           17.0387994347       -8.3286750756        1.3406740988  MEMB      18              0.0000000000
      2286        18  DOPC      H12X           17.3029441508       -8.9621002829        0.4638794544  MEMB      18              0.0000000000
      2287        18  DOPC      H12Y           17.5291882455       -7.3424896052        1.1948214303  MEMB      18              0.0000000000
      2288        18  DOPC      C313           15.5162102982       -8.1377284405        1.3733561107  MEMB      18              0.0000000000
      2289        18  DOPC      H13X           15.2240598026       -7.5300172777        2.2565710411  MEMB      18              0.0000000000
      2290        18  DOPC      H13Y           15.2025660497       -7.5968548701        0.4541928328  MEMB      18              0.0000000000
      2291        18  DOPC      C314           14.7834796235       -9.4701494606        1.4022061959  MEMB      18              0.0000000000
      2292        18  DOPC      H14X           15.2078514425      -10.0739823589        0.5714020048  MEMB      18              0.0000000000
      2293        18  DOPC      H14Y           14.9861179139       -9.9963348391        2.3557926899  MEMB      18              0.0000000000
      2294        18  DOPC      C315           13.2766863845       -9.3787176225        1.1802021129  MEMB      18              0.0000000000
      2295        18  DOPC      H15X           13.0403810782       -8.4800558461        0.5698236015  MEMB      18              0.0000000000
      2296        18  DOPC      H15Y           12.7601656389       -9.2825503169        2.1609665366  MEMB      18              0.0000000000
      2297        18  DOPC      C316           12.7794769366      -10.6221065727        0.4438962196  MEMB      18              0.0000000000
      2298        18  DOPC      H16X           11.7059799810      -10.4990611975        0.1829093030  MEMB      18              0.0000000000
      2299        18  DOPC      H16Y           13.3425313030      -10.7259212733       -0.5130751455  MEMB      18              0.0000000000
      2300        18  DOPC      C317           12.9779830199      -11.8929755416        1.2740162085  MEMB      18              0.0000000000
      2301        18  DOPC      H17X           14.0424101132      -11.9841146480        1.5954318501  MEMB      18              0.0000000000
      2302        18  DOPC      H17Y           12.3648323555      -11.8369863827        2.2006081339  MEMB      18              0.0000000000
      2303        18  DOPC      C318           12.6474531819      -13.1381315650        0.4727129435  MEMB      18              0.0000000000
      2304        18  DOPC      H18X           12.4402981515      -14.0033183419        1.1429155941  MEMB      18              0.0000000000
      2305        18  DOPC      H18Y           11.7851007064      -12.9884033880       -0.2095285455  MEMB      18              0.0000000000
      2306        18  DOPC      H18Z           13.5197919974      -13.3501986020       -0.1678785380  MEMB      18              0.0000000000
      2307        19  23SM      N               2.9119221474      -18.6126803290       27.6784235604  MEMB      19              0.0000000000
      2308        19  23SM      C15             3.7558113259      -17.7043434074       26.8592288712  MEMB      19              0.0000000000
      2309        19  23SM      H15A            4.5463644243      -18.2451254770       26.3346335653  MEMB      19              0.0000000000
      2310        19  23SM      H15B            4.2701176064      -17.0250250853       27.5132337479  MEMB      19              0.0000000000
      2311        19  23SM      H15C            3.1290310337      -17.1890424736       26.1394144062  MEMB      19              0.0000000000
      2312        19  23SM      C14             3.7459262440      -19.2238716932       28.7621825051  MEMB      19              0.0000000000
      2313        19  23SM      H14A            4.5861677847      -19.7555108388       28.3344034310  MEMB      19              0.0000000000
      2314        19  23SM      H14B            3.1384305406      -19.9444467367       29.3123163015  MEMB      19              0.0000000000
      2315        19  23SM      H14C            4.1011389373      -18.4799247298       29.4674359842  MEMB      19              0.0000000000
      2316        19  23SM      C13             1.8146247562      -17.8197817104       28.2946911343  MEMB      19              0.0000000000
      2317        19  23SM      H13A            1.1100169553      -17.5122946274       27.5235419646  MEMB      19              0.0000000000
      2318        19  23SM      H13B            2.2099736562      -16.9533964250       28.8130330093  MEMB      19              0.0000000000
      2319        19  23SM      H13C            1.2727206588      -18.4097830739       29.0212581132  MEMB      19              0.0000000000
      2320        19  23SM      C12             2.3561840287      -19.7158175835       26.7942398217  MEMB      19              0.0000000000
      2321        19  23SM      H12A            1.5580520413      -20.2376127307       27.3147522521  MEMB      19              0.0000000000
      2322        19  23SM      H12B            3.1239587658      -20.4599618026       26.6298829114  MEMB      19              0.0000000000
      2323        19  23SM      C11             1.7993229729      -19.3095911942       25.4185280997  MEMB      19              0.0000000000
      2324        19  23SM      H11A            1.7514504147      -20.2361082110       24.8125290018  MEMB      19              0.0000000000
      2325        19  23SM      H11B            2.5349094087      -18.6570155858       24.8998673752  MEMB      19              0.0000000000
      2326        19  23SM      P               0.0126341522      -17.4926014016       24.6771183143  MEMB      19              0.0000000000
      2327        19  23SM      O13            -1.1888902675      -17.8944498523       23.9052564805  MEMB      19              0.0000000000
      2328        19  23SM      O14            -0.1157665886      -16.3488327557       25.6207533126  MEMB      19              0.0000000000
      2329        19  23SM      O11             1.2443078415      -17.2098620871       23.7047286013  MEMB      19              0.0000000000
      2330        19  23SM      O12             0.4976829761      -18.7383890215       25.5487988394  MEMB      19              0.0000000000
      2331        19  23SM      C1S             1.4823299498      -17.9896605464       22.5248340018  MEMB      19              0.0000000000
      2332        19  23SM      H1S             0.6064885395      -18.6135650566       22.2404030297  MEMB      19              0.0000000000
      2333        19  23SM      H1T             2.3318173538      -18.6860574375       22.7002175347  MEMB      19              0.0000000000
      2334        19  23SM      NF              0.6737166793      -17.0453522450       20.4280315179  MEMB      19              0.0000000000
      2335        19  23SM      HNF             0.6994287618      -17.5473595872       19.5736907305  MEMB      19              0.0000000000
      2336        19  23SM      C2S             1.8079255332      -17.0771761170       21.3089958407  MEMB      19              0.0000000000
      2337        19  23SM      H2S             2.0007284181      -16.0444504141       21.6861341130  MEMB      19              0.0000000000
      2338        19  23SM      C3S             3.0786513993      -17.5385344939       20.5603474170  MEMB      19              0.0000000000
      2339        19  23SM      H3S             2.9808830636      -18.6088483173       20.2801998426  MEMB      19              0.0000000000
      2340        19  23SM      O3              4.2394228627      -17.4657693260       21.3747641953  MEMB      19              0.0000000000
      2341        19  23SM      HO3             3.9066500364      -17.4313320464       22.2821155240  MEMB      19              0.0000000000
      2342        19  23SM      C4S             3.1764037481      -16.7252589783       19.2843569159  MEMB      19              0.0000000000
      2343        19  23SM      H4S             3.1192702090      -15.6440125464       19.4572229461  MEMB      19              0.0000000000
      2344        19  23SM      C5S             3.2061277725      -17.1906116910       18.0156128897  MEMB      19              0.0000000000
      2345        19  23SM      H5S             3.2421968857      -18.2766126612       17.8117115737  MEMB      19              0.0000000000
      2346        19  23SM      C6S             3.2895871485      -16.3153420879       16.7941319915  MEMB      19              0.0000000000
      2347        19  23SM      H6S             4.2795452854      -15.8221823162       16.7257856232  MEMB      19              0.0000000000
      2348        19  23SM      H6T             2.4974711172      -15.5341056319       16.8383920550  MEMB      19              0.0000000000
      2349        19  23SM      C7S             3.1164645057      -17.1180541916       15.4895418885  MEMB      19              0.0000000000
      2350        19  23SM      H7S             2.1312458987      -17.6010338380       15.4857076566  MEMB      19              0.0000000000
      2351        19  23SM      H7T             3.8034106886      -17.9781734737       15.4370761464  MEMB      19              0.0000000000
      2352        19  23SM      C8S             3.2740613662      -16.2841331784       14.2045708297  MEMB      19              0.0000000000
      2353        19  23SM      H8S             4.2905417110      -15.8410743640       14.1318045300  MEMB      19              0.0000000000
      2354        19  23SM      H8T             2.5079055993      -15.4834919656       14.2461928333  MEMB      19              0.0000000000
      2355        19  23SM      C9S             2.9494777666      -17.0798920918       12.9367937250  MEMB      19              0.0000000000
      2356        19  23SM      H9S             2.2160596108      -17.8438795681       13.2397429119  MEMB      19              0.0000000000
      2357        19  23SM      H9T             3.8126489470      -17.6433735078       12.5538620828  MEMB      19              0.0000000000
      2358        19  23SM      C10S            2.3869337180      -16.2387887432       11.7821433807  MEMB      19              0.0000000000
      2359        19  23SM      H10S            3.2298887819      -15.7147735365       11.2828705745  MEMB      19              0.0000000000
      2360        19  23SM      H10T            1.7050819479      -15.4529701195       12.1732881745  MEMB      19              0.0000000000
      2361        19  23SM      C11S            1.6185624448      -17.0978046117       10.7638485993  MEMB      19              0.0000000000
      2362        19  23SM      H11S            0.6111155179      -17.3398824982       11.1588103532  MEMB      19              0.0000000000
      2363        19  23SM      H11T            2.1601626004      -18.0573329679       10.6045572800  MEMB      19              0.0000000000
      2364        19  23SM      C12S            1.4556018349      -16.3842314786        9.4276421067  MEMB      19              0.0000000000
      2365        19  23SM      H12S            2.4826847110      -16.1817336041        9.0449096277  MEMB      19              0.0000000000
      2366        19  23SM      H12T            0.9430690008      -15.4081464223        9.5841073399  MEMB      19              0.0000000000
      2367        19  23SM      C13S            0.7085086381      -17.1790392106        8.3484565760  MEMB      19              0.0000000000
      2368        19  23SM      H13S           -0.3427929275      -17.3822455285        8.6377314544  MEMB      19              0.0000000000
      2369        19  23SM      H13T            1.2295432490      -18.1469222664        8.1871566897  MEMB      19              0.0000000000
      2370        19  23SM      C14S            0.7491697881      -16.3821291408        7.0533069425  MEMB      19              0.0000000000
      2371        19  23SM      H14S            1.7683847603      -15.9252604617        7.0394652376  MEMB      19              0.0000000000
      2372        19  23SM      H14T            0.0142780207      -15.5470522668        7.0848819257  MEMB      19              0.0000000000
      2373        19  23SM      C15S            0.6429479584      -17.1672876497        5.7395686980  MEMB      19              0.0000000000
      2374        19  23SM      H15S           -0.4089002383      -17.1832764488        5.3799701862  MEMB      19              0.0000000000
      2375        19  23SM      H15T            0.9721621973      -18.2176110911        5.8933118045  MEMB      19              0.0000000000
      2376        19  23SM      C16S            1.5594509723      -16.5224999465        4.6928021604  MEMB      19              0.0000000000
      2377        19  23SM      H16S            1.4702966119      -17.0197182100        3.7041657411  MEMB      19              0.0000000000
      2378        19  23SM      H16T            2.6141694403      -16.6482894234        5.0335109211  MEMB      19              0.0000000000
      2379        19  23SM      C17S            1.3002916508      -15.0286382808        4.5374923655  MEMB      19              0.0000000000
      2380        19  23SM      H17S            0.9474161747      -14.5541194302        5.4756632313  MEMB      19              0.0000000000
      2381        19  23SM      H17T            0.4841728481      -14.8865129814        3.8049800981  MEMB      19              0.0000000000
      2382        19  23SM      C18S            2.5253818149      -14.2624962189        4.0994695435  MEMB      19              0.0000000000
      2383        19  23SM      H18S            2.2510250878      -13.1902405080        3.9983769637  MEMB      19              0.0000000000
      2384        19  23SM      H18T            2.8528756939      -14.6367215162        3.1077752718  MEMB      19              0.0000000000
      2385        19  23SM      H18U            3.3633598426      -14.3418080991        4.8285990694  MEMB      19              0.0000000000
      2386        19  23SM      C1F            -0.4521640223      -16.4141572259       20.7519022411  MEMB      19              0.0000000000
      2387        19  23SM      OF             -0.5067889726      -15.5251758380       21.5989305797  MEMB      19              0.0000000000
      2388        19  23SM      C2F            -1.6263283121      -16.8471773969       19.9641948751  MEMB      19              0.0000000000
      2389        19  23SM      H2F            -2.4362293811      -17.1592029102       20.6646132670  MEMB      19              0.0000000000
      2390        19  23SM      H2G            -1.3741669784      -17.7167746837       19.3209422626  MEMB      19              0.0000000000
      2391        19  23SM      C3F            -2.1105417597      -15.6718941586       19.1046591627  MEMB      19              0.0000000000
      2392        19  23SM      H3F            -2.6445739059      -15.0004104487       19.8142198736  MEMB      19              0.0000000000
      2393        19  23SM      H3G            -2.8440648278      -16.0918888265       18.3795162119  MEMB      19              0.0000000000
      2394        19  23SM      C4F            -1.0852911560      -14.8242071069       18.3363926072  MEMB      19              0.0000000000
      2395        19  23SM      H4F            -0.4070014194      -14.3154088730       19.0599052718  MEMB      19              0.0000000000
      2396        19  23SM      H4G            -1.6327405108      -14.0123004802       17.8049734328  MEMB      19              0.0000000000
      2397        19  23SM      C5F            -0.2638619476      -15.6152288755       17.3165947169  MEMB      19              0.0000000000
      2398        19  23SM      H5F             0.3246572351      -16.3874677325       17.8554489073  MEMB      19              0.0000000000
      2399        19  23SM      H5G             0.4754064058      -14.9288239539       16.8524405586  MEMB      19              0.0000000000
      2400        19  23SM      C6F            -1.0954415233      -16.3368150315       16.2283732496  MEMB      19              0.0000000000
      2401        19  23SM      H6F            -1.8844430182      -15.6879284526       15.8100265785  MEMB      19              0.0000000000
      2402        19  23SM      H6G            -1.6008108418      -17.1818923053       16.7377356476  MEMB      19              0.0000000000
      2403        19  23SM      C7F            -0.1607885701      -16.8888529767       15.1450179450  MEMB      19              0.0000000000
      2404        19  23SM      H7F             0.1911838725      -17.8708522261       15.5281906815  MEMB      19              0.0000000000
      2405        19  23SM      H7G             0.6954897655      -16.1800252904       15.1187911330  MEMB      19              0.0000000000
      2406        19  23SM      C8F            -0.5483168464      -17.1052921123       13.6690577650  MEMB      19              0.0000000000
      2407        19  23SM      H8F             0.2283692343      -16.5486205537       13.1044622395  MEMB      19              0.0000000000
      2408        19  23SM      H8G            -1.4842486017      -16.6211401004       13.3359319154  MEMB      19              0.0000000000
      2409        19  23SM      C9F            -0.4032364568      -18.5904796803       13.2433384988  MEMB      19              0.0000000000
      2410        19  23SM      H9F            -0.5264397145      -19.2553186124       14.1215357538  MEMB      19              0.0000000000
      2411        19  23SM      H9G             0.6140302587      -18.7869146457       12.8555548825  MEMB      19              0.0000000000
      2412        19  23SM      C10F           -1.3640402512      -19.0198288078       12.1431971971  MEMB      19              0.0000000000
      2413        19  23SM      H10F           -1.5245492020      -18.1509117137       11.4713280150  MEMB      19              0.0000000000
      2414        19  23SM      H10G           -2.3273062552      -19.3020903469       12.5979745482  MEMB      19              0.0000000000
      2415        19  23SM      C11F           -0.9393673789      -20.2202391787       11.3086503514  MEMB      19              0.0000000000
      2416        19  23SM      H11F           -1.8321979159      -20.8775954510       11.2065838879  MEMB      19              0.0000000000
      2417        19  23SM      H11G           -0.1356187762      -20.8218228493       11.7790909794  MEMB      19              0.0000000000
      2418        19  23SM      C12F           -0.5917752464      -19.8141329013        9.8879758416  MEMB      19              0.0000000000
      2419        19  23SM      H12F            0.4532488572      -19.4480513708        9.8320307809  MEMB      19              0.0000000000
      2420        19  23SM      H12G           -1.2651954355      -18.9870008217        9.5701290517  MEMB      19              0.0000000000
      2421        19  23SM      C13F           -0.8404972711      -20.9738788414        8.9427845552  MEMB      19              0.0000000000
      2422        19  23SM      H13F           -0.8440969438      -20.5734920375        7.9071414973  MEMB      19              0.0000000000
      2423        19  23SM      H13G           -1.8524864220      -21.3919014050        9.1096518939  MEMB      19              0.0000000000
      2424        19  23SM      C14F            0.1918422007      -22.0878225747        9.0985694159  MEMB      19              0.0000000000
      2425        19  23SM      H14F           -0.2262670935      -22.9200198388        9.7052539487  MEMB      19              0.0000000000
      2426        19  23SM      H14G            1.0821788934      -21.7315932327        9.6603412164  MEMB      19              0.0000000000
      2427        19  23SM      C15F            0.5917871767      -22.5858764899        7.7150588534  MEMB      19              0.0000000000
      2428        19  23SM      H15F           -0.3406250183      -22.8575953851        7.1769241368  MEMB      19              0.0000000000
      2429        19  23SM      H15G            1.2279864249      -23.4942960269        7.8180904577  MEMB      19              0.0000000000
      2430        19  23SM      C16F            1.3341045704      -21.5415029291        6.8728240337  MEMB      19              0.0000000000
      2431        19  23SM      H16F            0.6340949091      -20.7811797381        6.4623406183  MEMB      19              0.0000000000
      2432        19  23SM      H16G            1.7531273666      -22.0731141803        5.9950287231  MEMB      19              0.0000000000
      2433        19  23SM      C17F            2.4138746173      -20.8318037362        7.7031201445  MEMB      19              0.0000000000
      2434        19  23SM      H17F            2.9565014837      -21.5882849739        8.3112655053  MEMB      19              0.0000000000
      2435        19  23SM      H17G            1.9202009136      -20.1276537834        8.4067044380  MEMB      19              0.0000000000
      2436        19  23SM      C18F            3.4290049740      -20.0514021774        6.8783981422  MEMB      19              0.0000000000
      2437        19  23SM      H18F            4.0966350699      -19.4739017647        7.5558063874  MEMB      19              0.0000000000
      2438        19  23SM      H18G            2.8619373014      -19.3038903960        6.2884352522  MEMB      19              0.0000000000
      2439        19  23SM      C19F            4.2613149231      -20.9874349789        5.9936408589  MEMB      19              0.0000000000
      2440        19  23SM      H19F            3.5964820080      -21.6515184590        5.4012963270  MEMB      19              0.0000000000
      2441        19  23SM      H19G            4.8753830803      -21.6477454908        6.6472264329  MEMB      19              0.0000000000
      2442        19  23SM      C20F            5.1460830104      -20.2663950964        4.9798824330  MEMB      19              0.0000000000
      2443        19  23SM      H20F            5.5345853996      -21.0138989370        4.2505997057  MEMB      19              0.0000000000
      2444        19  23SM      H20G            6.0294118171      -19.8456941193        5.5146169456  MEMB      19              0.0000000000
      2445        19  23SM      C21F            4.4398365417      -19.1198295222        4.2313945665  MEMB      19              0.0000000000
      2446        19  23SM      H21F            5.0856581748      -18.8478490224        3.3790064273  MEMB      19              0.0000000000
      2447        19  23SM      H21G            4.3634367290      -18.2427773779        4.9111712696  MEMB      19              0.0000000000
      2448        19  23SM      C22F            3.0657571732      -19.3698412462        3.5848674136  MEMB      19              0.0000000000
      2449        19  23SM      H22F            2.8472066526      -18.4673877770        2.9713983698  MEMB      19              0.0000000000
      2450        19  23SM      H22G            2.2558543502      -19.4411106010        4.3380881703  MEMB      19              0.0000000000
      2451        19  23SM      C23F            3.0040982400      -20.5883697107        2.6820568566  MEMB      19              0.0000000000
      2452        19  23SM      H23F            2.2566989166      -20.4535633097        1.8693876110  MEMB      19              0.0000000000
      2453        19  23SM      H23G            2.7542615079      -21.4927477217        3.2704721639  MEMB      19              0.0000000000
      2454        19  23SM      H23H            3.9949627431      -20.7681476614        2.2294671999  MEMB      19              0.0000000000
      2455        20  DOPE      N             -21.5903302267        4.2293643259       17.6149328811  MEMB      20              0.0000000000
      2456        20  DOPE      HN1           -22.3113594670        3.4949445947       17.4938541347  MEMB      20              0.0000000000
      2457        20  DOPE      HN2           -22.0095488835        5.1576724966       17.8432484976  MEMB      20              0.0000000000
      2458        20  DOPE      HN3           -21.0569546464        4.3350595947       16.7234526592  MEMB      20              0.0000000000
      2459        20  DOPE      C12           -20.6380368533        3.9694500456       18.7070113778  MEMB      20              0.0000000000
      2460        20  DOPE      H12A          -21.2317041431        3.7744336602       19.6238478544  MEMB      20              0.0000000000
      2461        20  DOPE      H12B          -20.0529809131        4.9084534805       18.8398418889  MEMB      20              0.0000000000
      2462        20  DOPE      C11           -19.7484888162        2.7690675730       18.3954204944  MEMB      20              0.0000000000
      2463        20  DOPE      H11A          -19.0538944851        2.9128576495       17.5453289920  MEMB      20              0.0000000000
      2464        20  DOPE      H11B          -20.3494643172        1.8776832066       18.1164680605  MEMB      20              0.0000000000
      2465        20  DOPE      P             -17.9220694389        3.4998437343       20.1190992468  MEMB      20              0.0000000000
      2466        20  DOPE      O13           -16.8091584129        2.6011984732       20.5107161746  MEMB      20              0.0000000000
      2467        20  DOPE      O14           -18.5731343444        4.3572931104       21.1399188815  MEMB      20              0.0000000000
      2468        20  DOPE      O11           -17.6671960689        4.3031242009       18.7519597657  MEMB      20              0.0000000000
      2469        20  DOPE      O12           -19.0116324414        2.4838261645       19.5647027247  MEMB      20              0.0000000000
      2470        20  DOPE      C1            -16.4090599961        4.8199538706       18.3067431361  MEMB      20              0.0000000000
      2471        20  DOPE      HA            -15.5860045900        4.0845521247       18.4798581950  MEMB      20              0.0000000000
      2472        20  DOPE      HB            -16.1623073349        5.7334040340       18.8937703048  MEMB      20              0.0000000000
      2473        20  DOPE      C2            -16.3078681743        5.1747927891       16.7599170064  MEMB      20              0.0000000000
      2474        20  DOPE      HS            -15.3511281476        5.7251909327       16.6271754445  MEMB      20              0.0000000000
      2475        20  DOPE      O21           -17.4185934212        5.9989777555       16.3053933264  MEMB      20              0.0000000000
      2476        20  DOPE      C21           -18.0575092442        5.6664900362       15.1872435973  MEMB      20              0.0000000000
      2477        20  DOPE      O22           -17.6063380063        5.5828972164       14.0617296741  MEMB      20              0.0000000000
      2478        20  DOPE      C22           -19.4538393038        5.1520976655       15.6256524473  MEMB      20              0.0000000000
      2479        20  DOPE      H2R           -19.8346637957        5.8852275511       16.3585325748  MEMB      20              0.0000000000
      2480        20  DOPE      H2S           -19.2494848012        4.2428335433       16.2068358493  MEMB      20              0.0000000000
      2481        20  DOPE      C3            -16.1892947706        3.8546233994       15.9095812769  MEMB      20              0.0000000000
      2482        20  DOPE      HX            -15.4729901056        3.1886916752       16.4287089658  MEMB      20              0.0000000000
      2483        20  DOPE      HY            -15.7112027005        4.2086215628       14.9597734652  MEMB      20              0.0000000000
      2484        20  DOPE      O31           -17.4191624950        3.1048933103       15.7034354914  MEMB      20              0.0000000000
      2485        20  DOPE      C31           -17.4088498776        2.4208675296       14.5531991583  MEMB      20              0.0000000000
      2486        20  DOPE      O32           -16.5249306964        2.4612005373       13.7277303745  MEMB      20              0.0000000000
      2487        20  DOPE      C32           -18.6983255511        1.6107293877       14.4209778167  MEMB      20              0.0000000000
      2488        20  DOPE      H2X           -18.5836411375        0.7528750718       15.1131901185  MEMB      20              0.0000000000
      2489        20  DOPE      H2Y           -19.5592928446        2.1904156842       14.7765091662  MEMB      20              0.0000000000
      2490        20  DOPE      C23           -20.4438154335        4.8520082965       14.4590178352  MEMB      20              0.0000000000
      2491        20  DOPE      H3R           -20.4892660706        3.7789886398       14.1970922278  MEMB      20              0.0000000000
      2492        20  DOPE      H3S           -20.0951714333        5.3741860580       13.5360314484  MEMB      20              0.0000000000
      2493        20  DOPE      C24           -21.8846687891        5.3149988963       14.6651535366  MEMB      20              0.0000000000
      2494        20  DOPE      H4R           -21.8832322730        6.4048242959       14.6046628886  MEMB      20              0.0000000000
      2495        20  DOPE      H4S           -22.2643294786        5.0929100636       15.6533026986  MEMB      20              0.0000000000
      2496        20  DOPE      C25           -22.9287244774        4.7829785668       13.6833089749  MEMB      20              0.0000000000
      2497        20  DOPE      H5R           -23.9003500346        5.2988794144       13.8433557461  MEMB      20              0.0000000000
      2498        20  DOPE      H5S           -23.0703542646        3.6970110890       13.9003433026  MEMB      20              0.0000000000
      2499        20  DOPE      C26           -22.5722277152        4.8532193980       12.1962141070  MEMB      20              0.0000000000
      2500        20  DOPE      H6R           -23.1833538862        4.0500061870       11.7333514510  MEMB      20              0.0000000000
      2501        20  DOPE      H6S           -21.5168826119        4.5813837574       12.0308234687  MEMB      20              0.0000000000
      2502        20  DOPE      C27           -22.8774906594        6.1518803515       11.4308093026  MEMB      20              0.0000000000
      2503        20  DOPE      H7R           -22.2902349224        6.9643337551       11.8594907725  MEMB      20              0.0000000000
      2504        20  DOPE      H7S           -23.9348146593        6.4494122591       11.5425943947  MEMB      20              0.0000000000
      2505        20  DOPE      C28           -22.5176156913        6.0733004673        9.9387879154  MEMB      20              0.0000000000
      2506        20  DOPE      H8R           -21.4775828680        5.6903067471        9.8336557375  MEMB      20              0.0000000000
      2507        20  DOPE      H8S           -22.5541203397        7.0749183300        9.4710351902  MEMB      20              0.0000000000
      2508        20  DOPE      C29           -23.5432375846        5.1721991269        9.3322024207  MEMB      20              0.0000000000
      2509        20  DOPE      H9R           -24.5578551866        5.5880776799        9.2201799594  MEMB      20              0.0000000000
      2510        20  DOPE      C210          -23.3329697701        3.8832816958        9.0785135358  MEMB      20              0.0000000000
      2511        20  DOPE      H10R          -24.2329069728        3.2783176408        8.9628561357  MEMB      20              0.0000000000
      2512        20  DOPE      C211          -22.0605839001        3.1123415258        9.3413536927  MEMB      20              0.0000000000
      2513        20  DOPE      H11R          -22.2650099591        2.1036098840        9.7613528637  MEMB      20              0.0000000000
      2514        20  DOPE      H11S          -21.4369132490        3.6023465390       10.1120224176  MEMB      20              0.0000000000
      2515        20  DOPE      C212          -21.1823837668        2.9459925510        8.1005749338  MEMB      20              0.0000000000
      2516        20  DOPE      H12R          -20.3625393279        2.2514163000        8.3813508052  MEMB      20              0.0000000000
      2517        20  DOPE      H12S          -20.7093966859        3.9074448302        7.8211185814  MEMB      20              0.0000000000
      2518        20  DOPE      C213          -21.8778428097        2.3652987625        6.8739275526  MEMB      20              0.0000000000
      2519        20  DOPE      H13R          -22.2026164802        3.1988146625        6.2118218150  MEMB      20              0.0000000000
      2520        20  DOPE      H13S          -22.7927084029        1.8212560776        7.1724035331  MEMB      20              0.0000000000
      2521        20  DOPE      C214          -20.9342800054        1.3960701007        6.1538095147  MEMB      20              0.0000000000
      2522        20  DOPE      H14R          -20.6027743704        0.6169085105        6.8767258431  MEMB      20              0.0000000000
      2523        20  DOPE      H14S          -20.0230758097        1.9549629764        5.8400323607  MEMB      20              0.0000000000
      2524        20  DOPE      C215          -21.5667915716        0.7165452834        4.9360960179  MEMB      20              0.0000000000
      2525        20  DOPE      H15R          -22.3133578683       -0.0271966517        5.2929783010  MEMB      20              0.0000000000
      2526        20  DOPE      H15S          -20.7734597750        0.1556588085        4.3935325181  MEMB      20              0.0000000000
      2527        20  DOPE      C216          -22.2656632362        1.6941092621        3.9763088757  MEMB      20              0.0000000000
      2528        20  DOPE      H16R          -23.1918087804        2.0669849424        4.4679129300  MEMB      20              0.0000000000
      2529        20  DOPE      H16S          -22.5715490471        1.1456722380        3.0584940260  MEMB      20              0.0000000000
      2530        20  DOPE      C217          -21.4002619669        2.8909107093        3.5653800957  MEMB      20              0.0000000000
      2531        20  DOPE      H17R          -20.9143560524        3.3574441264        4.4472140597  MEMB      20              0.0000000000
      2532        20  DOPE      H17S          -22.0258150415        3.6788684758        3.1092951403  MEMB      20              0.0000000000
      2533        20  DOPE      C218          -20.3425068784        2.5093210141        2.5578849884  MEMB      20              0.0000000000
      2534        20  DOPE      H18R          -19.5810560354        3.3113959880        2.4767098463  MEMB      20              0.0000000000
      2535        20  DOPE      H18S          -20.7758563310        2.3233710627        1.5590617625  MEMB      20              0.0000000000
      2536        20  DOPE      H18T          -19.8574718764        1.5753700559        2.8948259604  MEMB      20              0.0000000000
      2537        20  DOPE      C33           -18.9627087487        1.1050965070       12.9787759021  MEMB      20              0.0000000000
      2538        20  DOPE      H3X           -19.5960518460        0.1926295030       13.0792884965  MEMB      20              0.0000000000
      2539        20  DOPE      H3Y           -18.0168725199        0.7877269040       12.4833458025  MEMB      20              0.0000000000
      2540        20  DOPE      C34           -19.7447794383        2.0821448208       12.0744792544  MEMB      20              0.0000000000
      2541        20  DOPE      H4X           -20.0087863786        1.5746331035       11.1224587848  MEMB      20              0.0000000000
      2542        20  DOPE      H4Y           -20.7133579273        2.3072688272       12.5747385215  MEMB      20              0.0000000000
      2543        20  DOPE      C35           -19.0405429591        3.4185838494       11.7619889901  MEMB      20              0.0000000000
      2544        20  DOPE      H5X           -18.7311697596        3.8794586919       12.7191842585  MEMB      20              0.0000000000
      2545        20  DOPE      H5Y           -19.7450107084        4.1173493718       11.2687661808  MEMB      20              0.0000000000
      2546        20  DOPE      C36           -17.7962016517        3.3694457472       10.8693400684  MEMB      20              0.0000000000
      2547        20  DOPE      H6X           -17.0413984928        2.7268377076       11.3717891007  MEMB      20              0.0000000000
      2548        20  DOPE      H6Y           -17.3694258201        4.3971496705       10.8110478963  MEMB      20              0.0000000000
      2549        20  DOPE      C37           -18.0501918583        2.8533013736        9.4475344342  MEMB      20              0.0000000000
      2550        20  DOPE      H7X           -18.6406931672        1.9116000353        9.5144356557  MEMB      20              0.0000000000
      2551        20  DOPE      H7Y           -18.6413384063        3.5822115324        8.8531794204  MEMB      20              0.0000000000
      2552        20  DOPE      C38           -16.7391964866        2.5062264758        8.7388794836  MEMB      20              0.0000000000
      2553        20  DOPE      H8X           -16.8953803961        1.5664755459        8.1669470054  MEMB      20              0.0000000000
      2554        20  DOPE      H8Y           -16.0137311254        2.2470097587        9.5303185811  MEMB      20              0.0000000000
      2555        20  DOPE      C39           -16.1840547921        3.6099671399        7.8836332994  MEMB      20              0.0000000000
      2556        20  DOPE      H9X           -16.2895310033        4.6230615022        8.3028427344  MEMB      20              0.0000000000
      2557        20  DOPE      C310          -15.6290061674        3.4405333918        6.6713202546  MEMB      20              0.0000000000
      2558        20  DOPE      H10X          -15.3174103159        4.3317596351        6.1074366781  MEMB      20              0.0000000000
      2559        20  DOPE      C311          -15.4599329659        2.1226794101        5.9490534040  MEMB      20              0.0000000000
      2560        20  DOPE      H11X          -14.6892717286        2.2119413695        5.1536502351  MEMB      20              0.0000000000
      2561        20  DOPE      H11Y          -15.1070259780        1.3132428814        6.6188602704  MEMB      20              0.0000000000
      2562        20  DOPE      C312          -16.7788243055        1.6143639757        5.3540468194  MEMB      20              0.0000000000
      2563        20  DOPE      H12X          -17.5646403147        1.5792688203        6.1424580215  MEMB      20              0.0000000000
      2564        20  DOPE      H12Y          -16.6501003655        0.5716728595        4.9854262174  MEMB      20              0.0000000000
      2565        20  DOPE      C313          -17.2757280018        2.4792429440        4.2021260591  MEMB      20              0.0000000000
      2566        20  DOPE      H13X          -18.3391616301        2.2295703514        4.0571454576  MEMB      20              0.0000000000
      2567        20  DOPE      H13Y          -17.2407463729        3.5515195798        4.4853005014  MEMB      20              0.0000000000
      2568        20  DOPE      C314          -16.4895997255        2.2230460248        2.9103863614  MEMB      20              0.0000000000
      2569        20  DOPE      H14X          -16.4402641383        1.1288487912        2.7166084595  MEMB      20              0.0000000000
      2570        20  DOPE      H14Y          -15.4514397098        2.5893467708        3.0700672726  MEMB      20              0.0000000000
      2571        20  DOPE      C315          -17.0950272794        2.9261982312        1.6909436178  MEMB      20              0.0000000000
      2572        20  DOPE      H15X          -17.4678062093        3.9229198315        2.0200833945  MEMB      20              0.0000000000
      2573        20  DOPE      H15Y          -17.9699356528        2.3589585327        1.3146534017  MEMB      20              0.0000000000
      2574        20  DOPE      C316          -16.0970189055        3.1477550547        0.5512592721  MEMB      20              0.0000000000
      2575        20  DOPE      H16X          -16.0493000784        2.2491788169       -0.1006337516  MEMB      20              0.0000000000
      2576        20  DOPE      H16Y          -15.0840937418        3.2904228256        0.9949535863  MEMB      20              0.0000000000
      2577        20  DOPE      C317          -16.4154786099        4.4179731622       -0.2524555189  MEMB      20              0.0000000000
      2578        20  DOPE      H17X          -16.5672117467        5.2640368807        0.4511494811  MEMB      20              0.0000000000
      2579        20  DOPE      H17Y          -15.5304202652        4.6688072113       -0.8684262929  MEMB      20              0.0000000000
      2580        20  DOPE      C318          -17.6046105439        4.3353393960       -1.2010545811  MEMB      20              0.0000000000
      2581        20  DOPE      H18X          -18.5356417849        4.0564954549       -0.6645272639  MEMB      20              0.0000000000
      2582        20  DOPE      H18Y          -17.7606056290        5.3161520903       -1.6906524731  MEMB      20              0.0000000000
      2583        20  DOPE      H18Z          -17.4043997993        3.5986771016       -2.0049781376  MEMB      20              0.0000000000
      2584        21  DOPC      N             -21.5370170546       -5.8042244418       20.1690124587  MEMB      21              0.0000000000
      2585        21  DOPC      C12           -20.7570611740       -4.5479583744       19.7599099722  MEMB      21              0.0000000000
      2586        21  DOPC      H12A          -20.9705639011       -3.7522985957       20.4585648134  MEMB      21              0.0000000000
      2587        21  DOPC      H12B          -21.0827460432       -4.2511782743       18.7676840496  MEMB      21              0.0000000000
      2588        21  DOPC      C13           -21.7208300940       -6.5730578954       18.9177031747  MEMB      21              0.0000000000
      2589        21  DOPC      H13A          -22.0794560607       -7.5796979049       19.0430009156  MEMB      21              0.0000000000
      2590        21  DOPC      H13B          -22.3858321539       -6.0883449771       18.2105922558  MEMB      21              0.0000000000
      2591        21  DOPC      H13C          -20.7412590069       -6.6606930409       18.4264744226  MEMB      21              0.0000000000
      2592        21  DOPC      C14           -22.8030593547       -5.3856102090       20.8394035830  MEMB      21              0.0000000000
      2593        21  DOPC      H14A          -23.5678043389       -5.0450253869       20.1539438600  MEMB      21              0.0000000000
      2594        21  DOPC      H14B          -23.1786397911       -6.1270757964       21.5195179237  MEMB      21              0.0000000000
      2595        21  DOPC      H14C          -22.5726585132       -4.5510164914       21.5007519647  MEMB      21              0.0000000000
      2596        21  DOPC      C15           -20.6588971805       -6.5572917985       21.1229200623  MEMB      21              0.0000000000
      2597        21  DOPC      H15A          -20.4206698330       -5.9266332223       21.9761584074  MEMB      21              0.0000000000
      2598        21  DOPC      H15B          -19.7074981213       -6.7716150222       20.6246992453  MEMB      21              0.0000000000
      2599        21  DOPC      H15C          -21.0701134856       -7.4740200135       21.5119053835  MEMB      21              0.0000000000
      2600        21  DOPC      C11           -19.2096437004       -4.6175601106       19.7131266148  MEMB      21              0.0000000000
      2601        21  DOPC      H11A          -18.8652759959       -3.5957959827       19.4162845981  MEMB      21              0.0000000000
      2602        21  DOPC      H11B          -18.7866051693       -4.7933692838       20.7274800617  MEMB      21              0.0000000000
      2603        21  DOPC      P             -17.4350625479       -5.3242277437       17.9771004959  MEMB      21              0.0000000000
      2604        21  DOPC      O13           -16.3983939846       -4.8036319095       18.9040295466  MEMB      21              0.0000000000
      2605        21  DOPC      O14           -17.8296548671       -4.4925076475       16.8206319780  MEMB      21              0.0000000000
      2606        21  DOPC      O12           -18.7699125060       -5.6256181162       18.8078661710  MEMB      21              0.0000000000
      2607        21  DOPC      O11           -17.0159146640       -6.7746329414       17.4850191387  MEMB      21              0.0000000000
      2608        21  DOPC      C1            -18.1084092963       -7.6023991117       17.0834243381  MEMB      21              0.0000000000
      2609        21  DOPC      HA            -18.8994531573       -7.0146509198       16.5563135891  MEMB      21              0.0000000000
      2610        21  DOPC      HB            -18.5603081707       -8.0692716762       17.9871736093  MEMB      21              0.0000000000
      2611        21  DOPC      C2            -17.7381632784       -8.7576734867       16.1172048343  MEMB      21              0.0000000000
      2612        21  DOPC      HS            -17.0294563844       -9.4394569334       16.6398260732  MEMB      21              0.0000000000
      2613        21  DOPC      O21           -17.1560993571       -8.2930929148       14.8833649494  MEMB      21              0.0000000000
      2614        21  DOPC      C21           -16.8213241604       -9.2280503748       14.0037466143  MEMB      21              0.0000000000
      2615        21  DOPC      O22           -16.8081930139      -10.4283473147       14.1848628254  MEMB      21              0.0000000000
      2616        21  DOPC      C22           -16.5144963115       -8.5541471855       12.6876617819  MEMB      21              0.0000000000
      2617        21  DOPC      H2R           -16.2419984335       -9.3374481579       11.9504100044  MEMB      21              0.0000000000
      2618        21  DOPC      H2S           -15.6553209396       -7.8813207163       12.8572944669  MEMB      21              0.0000000000
      2619        21  DOPC      C3            -19.0580826886       -9.5018580064       15.8414431763  MEMB      21              0.0000000000
      2620        21  DOPC      HX            -19.4585960740       -9.9091260881       16.7985507073  MEMB      21              0.0000000000
      2621        21  DOPC      HY            -18.7995115986      -10.3831641173       15.2333093975  MEMB      21              0.0000000000
      2622        21  DOPC      O31           -19.9954763642       -8.6583985220       15.1211141471  MEMB      21              0.0000000000
      2623        21  DOPC      C31           -21.0855167927       -8.2817807961       15.7855461402  MEMB      21              0.0000000000
      2624        21  DOPC      O32           -21.3260775423       -8.5749357667       16.9482770642  MEMB      21              0.0000000000
      2625        21  DOPC      C32           -22.0292460007       -7.4919104165       14.8597745757  MEMB      21              0.0000000000
      2626        21  DOPC      H2X           -23.0585085281       -7.6009619670       15.2709537259  MEMB      21              0.0000000000
      2627        21  DOPC      H2Y           -21.7607495929       -6.4179874910       14.8849381454  MEMB      21              0.0000000000
      2628        21  DOPC      C23           -17.6981759975       -7.7233326096       12.1790979278  MEMB      21              0.0000000000
      2629        21  DOPC      H3R           -18.1440888281       -7.0884233514       12.9795124415  MEMB      21              0.0000000000
      2630        21  DOPC      H3S           -18.4969287384       -8.4293376764       11.8658581686  MEMB      21              0.0000000000
      2631        21  DOPC      C24           -17.2596783854       -6.8010676991       11.0405396850  MEMB      21              0.0000000000
      2632        21  DOPC      H4R           -16.3655067053       -7.2221410472       10.5271565494  MEMB      21              0.0000000000
      2633        21  DOPC      H4S           -16.9719625242       -5.8106094982       11.4617756936  MEMB      21              0.0000000000
      2634        21  DOPC      C25           -18.3702782500       -6.6628560855       10.0130284309  MEMB      21              0.0000000000
      2635        21  DOPC      H5R           -18.1745364471       -5.8299175270        9.3079091999  MEMB      21              0.0000000000
      2636        21  DOPC      H5S           -19.3134679441       -6.4079684681       10.5527027645  MEMB      21              0.0000000000
      2637        21  DOPC      C26           -18.5737698527       -7.9701330633        9.2317831430  MEMB      21              0.0000000000
      2638        21  DOPC      H6R           -19.4841609118       -7.8104078334        8.6556216007  MEMB      21              0.0000000000
      2639        21  DOPC      H6S           -18.7871359355       -8.8168429558        9.9146337222  MEMB      21              0.0000000000
      2640        21  DOPC      C27           -17.4777415978       -8.4246547544        8.2531443022  MEMB      21              0.0000000000
      2641        21  DOPC      H7R           -17.9120861631       -9.1789007793        7.5600018193  MEMB      21              0.0000000000
      2642        21  DOPC      H7S           -16.6870412123       -8.9480081552        8.8339989975  MEMB      21              0.0000000000
      2643        21  DOPC      C28           -16.8303011134       -7.3111979158        7.4125048915  MEMB      21              0.0000000000
      2644        21  DOPC      H8R           -15.8465598024       -7.6921368263        7.0609264330  MEMB      21              0.0000000000
      2645        21  DOPC      H8S           -16.5781226356       -6.4736092431        8.1005803972  MEMB      21              0.0000000000
      2646        21  DOPC      C29           -17.6408231071       -6.8208148737        6.2298843126  MEMB      21              0.0000000000
      2647        21  DOPC      H9R           -18.2029305288       -5.8909291261        6.4183980450  MEMB      21              0.0000000000
      2648        21  DOPC      C210          -17.7724450069       -7.3953322372        5.0130368479  MEMB      21              0.0000000000
      2649        21  DOPC      H10R          -18.3623537159       -6.8650537015        4.2470480541  MEMB      21              0.0000000000
      2650        21  DOPC      C211          -17.1460181915       -8.6834328261        4.5307113666  MEMB      21              0.0000000000
      2651        21  DOPC      H11R          -17.9570374407       -9.4020872531        4.3648268436  MEMB      21              0.0000000000
      2652        21  DOPC      H11S          -16.4611415452       -9.1084150574        5.2948145888  MEMB      21              0.0000000000
      2653        21  DOPC      C212          -16.4097957928       -8.7172096763        3.1822259875  MEMB      21              0.0000000000
      2654        21  DOPC      H12R          -15.3836008512       -8.3628739195        3.4338188724  MEMB      21              0.0000000000
      2655        21  DOPC      H12S          -16.8342399468       -7.9624008614        2.5002180372  MEMB      21              0.0000000000
      2656        21  DOPC      C213          -16.2501137402      -10.1535071733        2.5709629874  MEMB      21              0.0000000000
      2657        21  DOPC      H13R          -15.8386252941      -10.7991486705        3.3750318341  MEMB      21              0.0000000000
      2658        21  DOPC      H13S          -15.5018120985      -10.0626181704        1.7778442859  MEMB      21              0.0000000000
      2659        21  DOPC      C214          -17.3652326589      -10.9210387592        1.8011838296  MEMB      21              0.0000000000
      2660        21  DOPC      H14R          -18.0703441776      -10.1912235082        1.3702219227  MEMB      21              0.0000000000
      2661        21  DOPC      H14S          -17.8926721539      -11.5754857224        2.5270788621  MEMB      21              0.0000000000
      2662        21  DOPC      C215          -16.9065270011      -11.7766819872        0.5849192998  MEMB      21              0.0000000000
      2663        21  DOPC      H15R          -16.6235442494      -12.7929414559        0.9194690667  MEMB      21              0.0000000000
      2664        21  DOPC      H15S          -15.9922610487      -11.2783135111        0.1826687906  MEMB      21              0.0000000000
      2665        21  DOPC      C216          -17.8731061667      -11.8507296196       -0.6364787248  MEMB      21              0.0000000000
      2666        21  DOPC      H16R          -17.2988814363      -12.1930719614       -1.5230046847  MEMB      21              0.0000000000
      2667        21  DOPC      H16S          -18.2030374280      -10.8199490884       -0.8507457488  MEMB      21              0.0000000000
      2668        21  DOPC      C217          -19.1263958502      -12.7435984183       -0.5600088679  MEMB      21              0.0000000000
      2669        21  DOPC      H17R          -19.5122700310      -12.6543693732        0.4718888324  MEMB      21              0.0000000000
      2670        21  DOPC      H17S          -18.8768725877      -13.8113793891       -0.7470948564  MEMB      21              0.0000000000
      2671        21  DOPC      C218          -20.2694893695      -12.3304708400       -1.4970822726  MEMB      21              0.0000000000
      2672        21  DOPC      H18R          -20.5019585150      -11.2613998037       -1.3200856277  MEMB      21              0.0000000000
      2673        21  DOPC      H18S          -21.1925465914      -12.9044220524       -1.2744552693  MEMB      21              0.0000000000
      2674        21  DOPC      H18T          -20.0130647438      -12.4755577676       -2.5665252674  MEMB      21              0.0000000000
      2675        21  DOPC      C33           -21.9902535203       -8.0327517012       13.4097656151  MEMB      21              0.0000000000
      2676        21  DOPC      H3X           -22.1420984438       -9.1284688046       13.4991361140  MEMB      21              0.0000000000
      2677        21  DOPC      H3Y           -20.9959391823       -7.8453182715       12.9484817858  MEMB      21              0.0000000000
      2678        21  DOPC      C34           -23.0894928709       -7.5356003079       12.4607813936  MEMB      21              0.0000000000
      2679        21  DOPC      H4X           -23.0393956960       -6.4394824360       12.3085510753  MEMB      21              0.0000000000
      2680        21  DOPC      H4Y           -24.0728335844       -7.7554619899       12.9453431861  MEMB      21              0.0000000000
      2681        21  DOPC      C35           -23.0863761648       -8.3064490797       11.1175196215  MEMB      21              0.0000000000
      2682        21  DOPC      H5X           -24.1317153824       -8.4100954831       10.7677046004  MEMB      21              0.0000000000
      2683        21  DOPC      H5Y           -22.8468332000       -9.3426839886       11.3765471038  MEMB      21              0.0000000000
      2684        21  DOPC      C36           -22.1996606231       -7.7606222511        9.9549982444  MEMB      21              0.0000000000
      2685        21  DOPC      H6X           -22.1637662960       -6.6536592625        9.9802437631  MEMB      21              0.0000000000
      2686        21  DOPC      H6Y           -21.1524178889       -8.0640656373       10.1066354059  MEMB      21              0.0000000000
      2687        21  DOPC      C37           -22.6550657143       -8.1979258176        8.5307441219  MEMB      21              0.0000000000
      2688        21  DOPC      H7X           -22.9813111294       -9.2574779708        8.5528211739  MEMB      21              0.0000000000
      2689        21  DOPC      H7Y           -23.5386679823       -7.6066819610        8.2173102303  MEMB      21              0.0000000000
      2690        21  DOPC      C38           -21.6493321603       -7.9991209177        7.3762008643  MEMB      21              0.0000000000
      2691        21  DOPC      H8X           -22.0989843247       -8.4146008970        6.4486039480  MEMB      21              0.0000000000
      2692        21  DOPC      H8Y           -20.7344061380       -8.5805321337        7.4411901513  MEMB      21              0.0000000000
      2693        21  DOPC      C39           -21.2717112778       -6.5565547166        7.2636003352  MEMB      21              0.0000000000
      2694        21  DOPC      H9X           -20.4360359078       -6.1878638706        7.8791636686  MEMB      21              0.0000000000
      2695        21  DOPC      C310          -21.8956751914       -5.7335468915        6.4400962541  MEMB      21              0.0000000000
      2696        21  DOPC      H10X          -21.5888392912       -4.6785096601        6.4058458834  MEMB      21              0.0000000000
      2697        21  DOPC      C311          -23.0273503919       -6.1459998850        5.5412132292  MEMB      21              0.0000000000
      2698        21  DOPC      H11X          -23.9186938587       -5.5405699478        5.7690324537  MEMB      21              0.0000000000
      2699        21  DOPC      H11Y          -23.3977923034       -7.1814701156        5.6960511871  MEMB      21              0.0000000000
      2700        21  DOPC      C312          -22.6341153187       -6.0207504754        4.0650351516  MEMB      21              0.0000000000
      2701        21  DOPC      H12X          -23.5297661424       -5.6737063904        3.5043113041  MEMB      21              0.0000000000
      2702        21  DOPC      H12Y          -22.4348766180       -7.0415068868        3.6886322458  MEMB      21              0.0000000000
      2703        21  DOPC      C313          -21.4354688029       -5.0936087861        3.7451774112  MEMB      21              0.0000000000
      2704        21  DOPC      H13X          -21.3341591240       -4.2483831116        4.4533358633  MEMB      21              0.0000000000
      2705        21  DOPC      H13Y          -20.4891810789       -5.6727368274        3.8385926632  MEMB      21              0.0000000000
      2706        21  DOPC      C314          -21.6031598909       -4.4595109252        2.3631270754  MEMB      21              0.0000000000
      2707        21  DOPC      H14X          -22.6605258566       -4.1759796461        2.2137535850  MEMB      21              0.0000000000
      2708        21  DOPC      H14Y          -20.9495092915       -3.5705487848        2.2483293526  MEMB      21              0.0000000000
      2709        21  DOPC      C315          -21.2158555069       -5.4829865694        1.3350653097  MEMB      21              0.0000000000
      2710        21  DOPC      H15X          -21.7835309172       -6.4069473617        1.5534847527  MEMB      21              0.0000000000
      2711        21  DOPC      H15Y          -20.1690082696       -5.6564913146        1.6321052923  MEMB      21              0.0000000000
      2712        21  DOPC      C316          -21.3945872382       -5.1946480595       -0.1604195730  MEMB      21              0.0000000000
      2713        21  DOPC      H16X          -21.1302947234       -6.1721653780       -0.6344218675  MEMB      21              0.0000000000
      2714        21  DOPC      H16Y          -22.4593815316       -4.9760395882       -0.3938695123  MEMB      21              0.0000000000
      2715        21  DOPC      C317          -20.4454937381       -4.1714714725       -0.7992783480  MEMB      21              0.0000000000
      2716        21  DOPC      H17X          -20.9153917114       -3.1794153382       -0.8997290407  MEMB      21              0.0000000000
      2717        21  DOPC      H17Y          -19.5774919769       -4.0497060334       -0.1177051395  MEMB      21              0.0000000000
      2718        21  DOPC      C318          -19.9436388468       -4.5357032515       -2.2013532871  MEMB      21              0.0000000000
      2719        21  DOPC      H18X          -19.5697877548       -5.5799760876       -2.2375078550  MEMB      21              0.0000000000
      2720        21  DOPC      H18Y          -20.7541031278       -4.4221215931       -2.9537248859  MEMB      21              0.0000000000
      2721        21  DOPC      H18Z          -19.1108519333       -3.8542213728       -2.4778331684  MEMB      21              0.0000000000
      2722        22  DOPC      N             -11.2023059732       15.1277468483       17.3740800314  MEMB      22              0.0000000000
      2723        22  DOPC      C12           -11.2989030383       16.6179392040       17.6896908874  MEMB      22              0.0000000000
      2724        22  DOPC      H12A          -12.3389254908       16.9439086704       17.6849207419  MEMB      22              0.0000000000
      2725        22  DOPC      H12B          -10.8126645746       17.2186161574       16.9282309328  MEMB      22              0.0000000000
      2726        22  DOPC      C13            -9.7837579893       14.6594844273       17.5991341640  MEMB      22              0.0000000000
      2727        22  DOPC      H13A           -9.5106970392       14.8172979190       18.6425875907  MEMB      22              0.0000000000
      2728        22  DOPC      H13B           -9.6579053729       13.6065371377       17.3902418712  MEMB      22              0.0000000000
      2729        22  DOPC      H13C           -9.0762896234       15.2272061293       17.0048751302  MEMB      22              0.0000000000
      2730        22  DOPC      C14           -11.5638030635       14.7827872908       15.9726460341  MEMB      22              0.0000000000
      2731        22  DOPC      H14A          -11.3451707724       13.7346801119       15.7966293102  MEMB      22              0.0000000000
      2732        22  DOPC      H14B          -12.6157453830       14.9467675155       15.7731017852  MEMB      22              0.0000000000
      2733        22  DOPC      H14C          -10.9635179997       15.3557902403       15.2774836342  MEMB      22              0.0000000000
      2734        22  DOPC      C15           -12.0908395572       14.3961492708       18.3378872779  MEMB      22              0.0000000000
      2735        22  DOPC      H15A          -13.0930741607       14.8033404582       18.3416401167  MEMB      22              0.0000000000
      2736        22  DOPC      H15B          -11.7033755780       14.5924682693       19.3475260006  MEMB      22              0.0000000000
      2737        22  DOPC      H15C          -12.0868708730       13.3323928791       18.1968222678  MEMB      22              0.0000000000
      2738        22  DOPC      C11           -10.7162747757       17.0603488839       19.0554514516  MEMB      22              0.0000000000
      2739        22  DOPC      H11A           -9.6231368950       16.8566619760       19.0696003537  MEMB      22              0.0000000000
      2740        22  DOPC      H11B          -10.8289443745       18.1617350412       19.1760306886  MEMB      22              0.0000000000
      2741        22  DOPC      P             -12.5517949690       16.8901271108       20.9279347815  MEMB      22              0.0000000000
      2742        22  DOPC      O13           -12.1914754295       18.1052384370       21.6875516524  MEMB      22              0.0000000000
      2743        22  DOPC      O14           -13.0394094330       15.7131584106       21.6855323302  MEMB      22              0.0000000000
      2744        22  DOPC      O12           -11.2999995476       16.3587769492       20.1342797464  MEMB      22              0.0000000000
      2745        22  DOPC      O11           -13.5478096861       17.2421938969       19.7512113871  MEMB      22              0.0000000000
      2746        22  DOPC      C1            -14.2229392611       18.5170918677       19.7663309219  MEMB      22              0.0000000000
      2747        22  DOPC      HA            -13.9501513553       19.2031332010       20.6027302935  MEMB      22              0.0000000000
      2748        22  DOPC      HB            -15.3171266493       18.3200580148       19.8699160761  MEMB      22              0.0000000000
      2749        22  DOPC      C2            -14.0652913594       19.2895566608       18.4338270054  MEMB      22              0.0000000000
      2750        22  DOPC      HS            -14.9786121762       19.9326775629       18.3385740541  MEMB      22              0.0000000000
      2751        22  DOPC      O21           -13.8651268842       18.3045027711       17.3796454601  MEMB      22              0.0000000000
      2752        22  DOPC      C21           -14.9937410416       18.1018626847       16.7389063542  MEMB      22              0.0000000000
      2753        22  DOPC      O22           -15.9622896765       18.8253914124       16.7888530185  MEMB      22              0.0000000000
      2754        22  DOPC      C22           -14.9440383512       16.8234895504       15.9068661930  MEMB      22              0.0000000000
      2755        22  DOPC      H2R           -15.9933679994       16.7623471870       15.5623483957  MEMB      22              0.0000000000
      2756        22  DOPC      H2S           -14.7189392591       15.9567834169       16.5500429238  MEMB      22              0.0000000000
      2757        22  DOPC      C3            -12.9316920262       20.3499430896       18.3676850468  MEMB      22              0.0000000000
      2758        22  DOPC      HX            -11.9403961142       19.9562969619       18.6717120271  MEMB      22              0.0000000000
      2759        22  DOPC      HY            -13.2063675247       21.1589729587       19.0847577144  MEMB      22              0.0000000000
      2760        22  DOPC      O31           -12.9225702098       20.9303115497       17.0490692145  MEMB      22              0.0000000000
      2761        22  DOPC      C31           -12.3184363409       20.1924801412       16.1294633078  MEMB      22              0.0000000000
      2762        22  DOPC      O32           -11.4487526457       19.3631616418       16.3280409167  MEMB      22              0.0000000000
      2763        22  DOPC      C32           -13.0712443570       20.3667329483       14.8141272899  MEMB      22              0.0000000000
      2764        22  DOPC      H2X           -14.0988077520       19.9877228248       14.9867987748  MEMB      22              0.0000000000
      2765        22  DOPC      H2Y           -13.1528997205       21.4346242963       14.5798149763  MEMB      22              0.0000000000
      2766        22  DOPC      C23           -14.1264155135       16.8077074042       14.5929796400  MEMB      22              0.0000000000
      2767        22  DOPC      H3R           -13.0587404460       16.5858573232       14.7797967077  MEMB      22              0.0000000000
      2768        22  DOPC      H3S           -14.1922936294       17.8194663916       14.1367088588  MEMB      22              0.0000000000
      2769        22  DOPC      C24           -14.7835829877       15.8481765670       13.5799650857  MEMB      22              0.0000000000
      2770        22  DOPC      H4R           -15.4264383538       16.4635415870       12.9098235179  MEMB      22              0.0000000000
      2771        22  DOPC      H4S           -15.4659937691       15.1655481908       14.1291007344  MEMB      22              0.0000000000
      2772        22  DOPC      C25           -13.8806767865       14.9682567339       12.6953693987  MEMB      22              0.0000000000
      2773        22  DOPC      H5R           -13.4287193738       14.1615253653       13.3095628804  MEMB      22              0.0000000000
      2774        22  DOPC      H5S           -13.0603581806       15.5710453621       12.2584204634  MEMB      22              0.0000000000
      2775        22  DOPC      C26           -14.7073906941       14.3533832722       11.5447331284  MEMB      22              0.0000000000
      2776        22  DOPC      H6R           -15.1086958769       15.1835755434       10.9176933184  MEMB      22              0.0000000000
      2777        22  DOPC      H6S           -15.5869409448       13.8342356063       11.9884203667  MEMB      22              0.0000000000
      2778        22  DOPC      C27           -13.9551036521       13.3549752642       10.6384631479  MEMB      22              0.0000000000
      2779        22  DOPC      H7R           -14.5265352216       12.3981302030       10.6349354426  MEMB      22              0.0000000000
      2780        22  DOPC      H7S           -12.9534819983       13.1297674211       11.0635398158  MEMB      22              0.0000000000
      2781        22  DOPC      C28           -13.8301518726       13.8047576904        9.1641958397  MEMB      22              0.0000000000
      2782        22  DOPC      H8R           -14.8423452887       14.0098534388        8.7499692882  MEMB      22              0.0000000000
      2783        22  DOPC      H8S           -13.3932713059       12.9783548052        8.5619482759  MEMB      22              0.0000000000
      2784        22  DOPC      C29           -12.9456520695       15.0117924323        9.0831939556  MEMB      22              0.0000000000
      2785        22  DOPC      H9R           -11.9398395217       14.8762985608        9.5063223512  MEMB      22              0.0000000000
      2786        22  DOPC      C210          -13.2617346130       16.2112226189        8.5801770847  MEMB      22              0.0000000000
      2787        22  DOPC      H10R          -12.5853468331       17.0374316880        8.7851807010  MEMB      22              0.0000000000
      2788        22  DOPC      C211          -14.5305041218       16.7109341901        7.9683392715  MEMB      22              0.0000000000
      2789        22  DOPC      H11R          -14.5823954080       17.7644582293        8.2960269890  MEMB      22              0.0000000000
      2790        22  DOPC      H11S          -15.4239141618       16.1905944519        8.3727660173  MEMB      22              0.0000000000
      2791        22  DOPC      C212          -14.5690624418       16.7279038099        6.4267367404  MEMB      22              0.0000000000
      2792        22  DOPC      H12R          -15.5715559983       17.0820305268        6.0945517032  MEMB      22              0.0000000000
      2793        22  DOPC      H12S          -14.4281823154       15.6941898301        6.0437898619  MEMB      22              0.0000000000
      2794        22  DOPC      C213          -13.5064978832       17.6538946748        5.8197472350  MEMB      22              0.0000000000
      2795        22  DOPC      H13R          -12.5110587454       17.3155318988        6.1840564445  MEMB      22              0.0000000000
      2796        22  DOPC      H13S          -13.6607733644       18.6953738911        6.1812411477  MEMB      22              0.0000000000
      2797        22  DOPC      C214          -13.4484257892       17.6414981524        4.2862686752  MEMB      22              0.0000000000
      2798        22  DOPC      H14R          -13.5526208183       16.5986120726        3.9188052534  MEMB      22              0.0000000000
      2799        22  DOPC      H14S          -12.4559496084       18.0029794079        3.9435977193  MEMB      22              0.0000000000
      2800        22  DOPC      C215          -14.4756945655       18.5448232827        3.6129585283  MEMB      22              0.0000000000
      2801        22  DOPC      H15R          -14.3550847919       19.6031407675        3.9322587848  MEMB      22              0.0000000000
      2802        22  DOPC      H15S          -15.4935975583       18.2241453366        3.9357054300  MEMB      22              0.0000000000
      2803        22  DOPC      C216          -14.3873205094       18.4285800044        2.0849359385  MEMB      22              0.0000000000
      2804        22  DOPC      H16R          -15.2716130688       18.9420926753        1.7043629892  MEMB      22              0.0000000000
      2805        22  DOPC      H16S          -14.4604535759       17.3577695489        1.7934362422  MEMB      22              0.0000000000
      2806        22  DOPC      C217          -13.1925044196       19.0801673236        1.3671305078  MEMB      22              0.0000000000
      2807        22  DOPC      H17R          -13.3499634228       18.9457258155        0.2705326741  MEMB      22              0.0000000000
      2808        22  DOPC      H17S          -12.2726915147       18.5234079921        1.6239109874  MEMB      22              0.0000000000
      2809        22  DOPC      C218          -12.9932136610       20.5763541465        1.6303679004  MEMB      22              0.0000000000
      2810        22  DOPC      H18R          -12.9414646887       20.7949904363        2.7170275559  MEMB      22              0.0000000000
      2811        22  DOPC      H18S          -13.8325533805       21.1516790071        1.1883714943  MEMB      22              0.0000000000
      2812        22  DOPC      H18T          -12.0504393231       20.9335208121        1.1614870164  MEMB      22              0.0000000000
      2813        22  DOPC      C33           -12.3737689618       19.5878797277       13.6854686367  MEMB      22              0.0000000000
      2814        22  DOPC      H3X           -12.3086024353       18.5271733708       13.9946707947  MEMB      22              0.0000000000
      2815        22  DOPC      H3Y           -11.3215959886       19.9309662861       13.5863074593  MEMB      22              0.0000000000
      2816        22  DOPC      C34           -13.0613113651       19.6697064386       12.3120619605  MEMB      22              0.0000000000
      2817        22  DOPC      H4X           -12.4901294298       20.3834393324       11.6855867836  MEMB      22              0.0000000000
      2818        22  DOPC      H4Y           -14.0943146050       20.0626259462       12.3935743120  MEMB      22              0.0000000000
      2819        22  DOPC      C35           -13.0563255732       18.3588012767       11.5251982886  MEMB      22              0.0000000000
      2820        22  DOPC      H5X           -13.3728233101       18.5691996134       10.4779962337  MEMB      22              0.0000000000
      2821        22  DOPC      H5Y           -13.8213414464       17.6739933273       11.9364492982  MEMB      22              0.0000000000
      2822        22  DOPC      C36           -11.6809201788       17.6732390100       11.5303997896  MEMB      22              0.0000000000
      2823        22  DOPC      H6X           -11.4560262431       17.2919273398       12.5494246655  MEMB      22              0.0000000000
      2824        22  DOPC      H6Y           -11.7159055045       16.7824279809       10.8710896997  MEMB      22              0.0000000000
      2825        22  DOPC      C37           -10.5269759026       18.5828083701       11.0951984391  MEMB      22              0.0000000000
      2826        22  DOPC      H7X           -10.4418451161       19.4610993577       11.7678340822  MEMB      22              0.0000000000
      2827        22  DOPC      H7Y            -9.5788214853       18.0184781312       11.2043105749  MEMB      22              0.0000000000
      2828        22  DOPC      C38           -10.6551339628       19.1201710097        9.6709749447  MEMB      22              0.0000000000
      2829        22  DOPC      H8X            -9.8904763086       19.9072994482        9.5322637184  MEMB      22              0.0000000000
      2830        22  DOPC      H8Y           -11.6470233211       19.6010125623        9.5263178289  MEMB      22              0.0000000000
      2831        22  DOPC      C39           -10.4411398572       18.0348209328        8.6664291517  MEMB      22              0.0000000000
      2832        22  DOPC      H9X           -10.4180216741       17.0024340066        9.0499632536  MEMB      22              0.0000000000
      2833        22  DOPC      C310          -10.1879756223       18.2550408279        7.3795584112  MEMB      22              0.0000000000
      2834        22  DOPC      H10X          -10.0322837651       17.3921672919        6.7152583186  MEMB      22              0.0000000000
      2835        22  DOPC      C311          -10.0759179027       19.6156061352        6.7606856992  MEMB      22              0.0000000000
      2836        22  DOPC      H11X           -8.9976858007       19.8619961478        6.6925293289  MEMB      22              0.0000000000
      2837        22  DOPC      H11Y          -10.5347568085       20.4070498158        7.3818468297  MEMB      22              0.0000000000
      2838        22  DOPC      C312          -10.6759521321       19.6217728615        5.3520129859  MEMB      22              0.0000000000
      2839        22  DOPC      H12X          -10.6503108125       20.6430101620        4.9518307306  MEMB      22              0.0000000000
      2840        22  DOPC      H12Y          -11.7520450533       19.3886220487        5.3920934729  MEMB      22              0.0000000000
      2841        22  DOPC      C313           -9.9288627439       18.6126914751        4.4691638940  MEMB      22              0.0000000000
      2842        22  DOPC      H13X           -8.8850810132       18.5397022698        4.8554986985  MEMB      22              0.0000000000
      2843        22  DOPC      H13Y          -10.3886889603       17.6102452487        4.6230027626  MEMB      22              0.0000000000
      2844        22  DOPC      C314           -9.8529464787       18.8884060850        2.9610865543  MEMB      22              0.0000000000
      2845        22  DOPC      H14X          -10.4963625992       18.1290396111        2.4712059769  MEMB      22              0.0000000000
      2846        22  DOPC      H14Y          -10.2076165803       19.9036468832        2.6985874030  MEMB      22              0.0000000000
      2847        22  DOPC      C315           -8.4098417472       18.7008531807        2.4840092994  MEMB      22              0.0000000000
      2848        22  DOPC      H15X           -8.1261842471       17.7257237269        2.9299257519  MEMB      22              0.0000000000
      2849        22  DOPC      H15Y           -7.7925468109       19.5062431965        2.9374079891  MEMB      22              0.0000000000
      2850        22  DOPC      C316           -8.1223671854       18.5924909881        0.9801922077  MEMB      22              0.0000000000
      2851        22  DOPC      H16X           -8.5094361140       19.4722519991        0.4375636710  MEMB      22              0.0000000000
      2852        22  DOPC      H16Y           -7.0201426011       18.5457042317        0.7930283452  MEMB      22              0.0000000000
      2853        22  DOPC      C317           -8.8107685355       17.3938078857        0.3442898361  MEMB      22              0.0000000000
      2854        22  DOPC      H17X           -8.6056992796       16.4736179756        0.9334766414  MEMB      22              0.0000000000
      2855        22  DOPC      H17Y           -9.9051618016       17.6016713523        0.3988720769  MEMB      22              0.0000000000
      2856        22  DOPC      C318           -8.4230558364       17.1938606057       -1.1154196395  MEMB      22              0.0000000000
      2857        22  DOPC      H18X           -8.0346080655       16.1678926260       -1.2938236188  MEMB      22              0.0000000000
      2858        22  DOPC      H18Y           -9.3267822194       17.3452198544       -1.7353610309  MEMB      22              0.0000000000
      2859        22  DOPC      H18Z           -7.6645530076       17.9300050990       -1.4549805437  MEMB      22              0.0000000000
      2860        23  23SM      N              -4.9780096670       21.4502329134       27.5781230671  MEMB      23              0.0000000000
      2861        23  23SM      C15            -4.8255306365       22.9206976663       27.4998143738  MEMB      23              0.0000000000
      2862        23  23SM      H15A           -3.8395742913       23.1912698753       27.8748631789  MEMB      23              0.0000000000
      2863        23  23SM      H15B           -5.5623712323       23.3985414386       28.1410953015  MEMB      23              0.0000000000
      2864        23  23SM      H15C           -4.9396861205       23.2502307998       26.4684130870  MEMB      23              0.0000000000
      2865        23  23SM      C14            -3.8955527953       20.8231382587       26.7523873361  MEMB      23              0.0000000000
      2866        23  23SM      H14A           -4.0586424662       21.0653870036       25.6946193769  MEMB      23              0.0000000000
      2867        23  23SM      H14B           -3.9713351784       19.7463658934       26.8100721762  MEMB      23              0.0000000000
      2868        23  23SM      H14C           -2.9085497492       21.1688863116       27.0255895345  MEMB      23              0.0000000000
      2869        23  23SM      C13            -4.8933821883       21.0473189871       29.0174449039  MEMB      23              0.0000000000
      2870        23  23SM      H13A           -3.9755871387       21.3683618887       29.5026718360  MEMB      23              0.0000000000
      2871        23  23SM      H13B           -4.9534884917       19.9630850420       29.0913843375  MEMB      23              0.0000000000
      2872        23  23SM      H13C           -5.7253186854       21.4572236444       29.5836743804  MEMB      23              0.0000000000
      2873        23  23SM      C12            -6.3271592253       20.9876699385       27.0302859052  MEMB      23              0.0000000000
      2874        23  23SM      H12A           -7.1335495945       21.3687591386       27.6429259292  MEMB      23              0.0000000000
      2875        23  23SM      H12B           -6.3692178973       19.8956770815       27.0999452242  MEMB      23              0.0000000000
      2876        23  23SM      C11            -6.6640957523       21.2881007912       25.5523419440  MEMB      23              0.0000000000
      2877        23  23SM      H11A           -6.5642567591       22.3722232911       25.3607306966  MEMB      23              0.0000000000
      2878        23  23SM      H11B           -7.7408657725       21.0524915879       25.3781052917  MEMB      23              0.0000000000
      2879        23  23SM      P              -6.2120990978       18.9789234588       24.4858137415  MEMB      23              0.0000000000
      2880        23  23SM      O13            -5.0048250380       18.2702820159       24.0148324767  MEMB      23              0.0000000000
      2881        23  23SM      O14            -6.7865196117       18.5018730179       25.7740395272  MEMB      23              0.0000000000
      2882        23  23SM      O11            -7.2813962805       18.9947403287       23.3187355001  MEMB      23              0.0000000000
      2883        23  23SM      O12            -5.8345073680       20.5329824073       24.6629471454  MEMB      23              0.0000000000
      2884        23  23SM      C1S            -7.5850903583       20.1458453311       22.5256669863  MEMB      23              0.0000000000
      2885        23  23SM      H1S            -7.1923942336       21.0859146372       22.9613546641  MEMB      23              0.0000000000
      2886        23  23SM      H1T            -8.6854582634       20.2662622601       22.4953416668  MEMB      23              0.0000000000
      2887        23  23SM      NF             -6.9584573926       21.4538240062       20.5505721368  MEMB      23              0.0000000000
      2888        23  23SM      HNF            -7.5370213765       21.7600793226       19.8018440023  MEMB      23              0.0000000000
      2889        23  23SM      C2S            -7.0827949696       20.0785536003       21.0455836525  MEMB      23              0.0000000000
      2890        23  23SM      H2S            -6.0807996583       19.5906953548       20.9973030600  MEMB      23              0.0000000000
      2891        23  23SM      C3S            -8.0664591574       19.2038300214       20.2370430917  MEMB      23              0.0000000000
      2892        23  23SM      H3S            -9.1192276912       19.4874373725       20.4613968366  MEMB      23              0.0000000000
      2893        23  23SM      O3             -7.8739532453       17.8405926298       20.5829130379  MEMB      23              0.0000000000
      2894        23  23SM      HO3            -7.3677387901       17.8903110506       21.4024823095  MEMB      23              0.0000000000
      2895        23  23SM      C4S            -7.8306791545       19.2889392168       18.7656419829  MEMB      23              0.0000000000
      2896        23  23SM      H4S            -6.9388131828       18.7344274983       18.4544127374  MEMB      23              0.0000000000
      2897        23  23SM      C5S            -8.5993310214       19.9084265730       17.8452038919  MEMB      23              0.0000000000
      2898        23  23SM      H5S            -9.5244674576       20.4220930318       18.1590804462  MEMB      23              0.0000000000
      2899        23  23SM      C6S            -8.3079082425       19.9520735257       16.3679078281  MEMB      23              0.0000000000
      2900        23  23SM      H6S            -8.0245021645       20.9862134503       16.0788384897  MEMB      23              0.0000000000
      2901        23  23SM      H6T            -9.2202738682       19.7091170803       15.7835549256  MEMB      23              0.0000000000
      2902        23  23SM      C7S            -7.2250877338       18.9618511326       15.8984638085  MEMB      23              0.0000000000
      2903        23  23SM      H7S            -7.5805539569       17.9165410814       16.0208815444  MEMB      23              0.0000000000
      2904        23  23SM      H7T            -6.3103986828       19.0935649228       16.5225677969  MEMB      23              0.0000000000
      2905        23  23SM      C8S            -6.7800276793       19.2049401718       14.4562946645  MEMB      23              0.0000000000
      2906        23  23SM      H8S            -5.8358342752       18.6537902188       14.2533309002  MEMB      23              0.0000000000
      2907        23  23SM      H8T            -6.5569534594       20.2870213557       14.3957835291  MEMB      23              0.0000000000
      2908        23  23SM      C9S            -7.8008754493       18.8732572541       13.3647676805  MEMB      23              0.0000000000
      2909        23  23SM      H9S            -8.7265099074       19.4616869387       13.5702382477  MEMB      23              0.0000000000
      2910        23  23SM      H9T            -8.0728704440       17.7979006595       13.3869462454  MEMB      23              0.0000000000
      2911        23  23SM      C10S           -7.2824886684       19.2795048067       11.9708231481  MEMB      23              0.0000000000
      2912        23  23SM      H10S           -6.4272410741       19.9805674088       12.0784375232  MEMB      23              0.0000000000
      2913        23  23SM      H10T           -8.1118266556       19.8387796132       11.4802306795  MEMB      23              0.0000000000
      2914        23  23SM      C11S           -6.8682536180       18.1338341482       11.0316179257  MEMB      23              0.0000000000
      2915        23  23SM      H11S           -7.5996640010       17.3047632908       11.1412085165  MEMB      23              0.0000000000
      2916        23  23SM      H11T           -5.8703361668       17.7331526932       11.3114174352  MEMB      23              0.0000000000
      2917        23  23SM      C12S           -6.8510414343       18.5735498893        9.5538155108  MEMB      23              0.0000000000
      2918        23  23SM      H12S           -5.9248534361       19.1528647958        9.3547425829  MEMB      23              0.0000000000
      2919        23  23SM      H12T           -7.7016089243       19.2676755350        9.3747280637  MEMB      23              0.0000000000
      2920        23  23SM      C13S           -6.9840431807       17.3972087681        8.5716334715  MEMB      23              0.0000000000
      2921        23  23SM      H13S           -7.9638009151       17.4152671350        8.0718532919  MEMB      23              0.0000000000
      2922        23  23SM      H13T           -6.9718938968       16.4477993483        9.1439380261  MEMB      23              0.0000000000
      2923        23  23SM      C14S           -5.9085169201       17.3306735638        7.4849857643  MEMB      23              0.0000000000
      2924        23  23SM      H14S           -5.5474536389       16.2795339169        7.4255879625  MEMB      23              0.0000000000
      2925        23  23SM      H14T           -5.0389480763       17.9654697760        7.7531076355  MEMB      23              0.0000000000
      2926        23  23SM      C15S           -6.3972378144       17.6575000051        6.0719718085  MEMB      23              0.0000000000
      2927        23  23SM      H15S           -6.6905287039       18.7280228421        5.9900499584  MEMB      23              0.0000000000
      2928        23  23SM      H15T           -7.2959320000       17.0421400435        5.8349220262  MEMB      23              0.0000000000
      2929        23  23SM      C16S           -5.2832345100       17.3177039227        5.0757333081  MEMB      23              0.0000000000
      2930        23  23SM      H16S           -4.9567112257       16.2645416246        5.2329650354  MEMB      23              0.0000000000
      2931        23  23SM      H16T           -4.4155190247       17.9815390077        5.2803291184  MEMB      23              0.0000000000
      2932        23  23SM      C17S           -5.7259827385       17.4651022447        3.6290064263  MEMB      23              0.0000000000
      2933        23  23SM      H17S           -6.0838786233       18.5079895787        3.4869610693  MEMB      23              0.0000000000
      2934        23  23SM      H17T           -6.5410276656       16.7313120117        3.4393099911  MEMB      23              0.0000000000
      2935        23  23SM      C18S           -4.6544520564       17.2043995231        2.6002709742  MEMB      23              0.0000000000
      2936        23  23SM      H18S           -3.8452914446       17.9498768923        2.7271582926  MEMB      23              0.0000000000
      2937        23  23SM      H18T           -5.0467652699       17.2941901985        1.5643451610  MEMB      23              0.0000000000
      2938        23  23SM      H18U           -4.2404178163       16.1820073897        2.7417145814  MEMB      23              0.0000000000
      2939        23  23SM      C1F            -5.9142182147       22.1581967812       21.0130701838  MEMB      23              0.0000000000
      2940        23  23SM      OF             -4.9768051117       21.5910506310       21.5517169342  MEMB      23              0.0000000000
      2941        23  23SM      C2F            -5.9006121601       23.6443493353       20.8608810427  MEMB      23              0.0000000000
      2942        23  23SM      H2F            -5.1829792473       24.0655001459       21.5975661320  MEMB      23              0.0000000000
      2943        23  23SM      H2G            -6.9004669967       24.0757672551       21.0560454237  MEMB      23              0.0000000000
      2944        23  23SM      C3F            -5.3685949022       24.0103605765       19.4793825386  MEMB      23              0.0000000000
      2945        23  23SM      H3F            -4.4086104544       23.4646193449       19.3028256833  MEMB      23              0.0000000000
      2946        23  23SM      H3G            -5.1050401387       25.0891456133       19.4247909550  MEMB      23              0.0000000000
      2947        23  23SM      C4F            -6.3436139244       23.6268111462       18.3775241520  MEMB      23              0.0000000000
      2948        23  23SM      H4F            -7.3585460352       24.0511161264       18.5264726477  MEMB      23              0.0000000000
      2949        23  23SM      H4G            -6.4514689355       22.5173623874       18.3467257724  MEMB      23              0.0000000000
      2950        23  23SM      C5F            -5.7499412713       24.0297051390       17.0562613633  MEMB      23              0.0000000000
      2951        23  23SM      H5F            -4.6392849281       23.9213222929       17.1219085738  MEMB      23              0.0000000000
      2952        23  23SM      H5G            -5.9683829016       25.0902405801       16.8096590221  MEMB      23              0.0000000000
      2953        23  23SM      C6F            -6.2073913587       23.0960246533       15.9541236725  MEMB      23              0.0000000000
      2954        23  23SM      H6F            -7.3006443838       23.2303322496       15.8002990842  MEMB      23              0.0000000000
      2955        23  23SM      H6G            -6.0192217914       22.0288511147       16.2153512768  MEMB      23              0.0000000000
      2956        23  23SM      C7F            -5.4117240847       23.4484830491       14.7176166326  MEMB      23              0.0000000000
      2957        23  23SM      H7F            -4.3290997411       23.2362601492       14.8846959353  MEMB      23              0.0000000000
      2958        23  23SM      H7G            -5.5311940212       24.5450973328       14.5879631840  MEMB      23              0.0000000000
      2959        23  23SM      C8F            -5.8858526680       22.7330725470       13.4663539668  MEMB      23              0.0000000000
      2960        23  23SM      H8F            -5.5479131920       21.6810035902       13.4890822593  MEMB      23              0.0000000000
      2961        23  23SM      H8G            -5.3495995262       23.1893675991       12.6034380489  MEMB      23              0.0000000000
      2962        23  23SM      C9F            -7.4059333191       22.8254750781       13.2285145533  MEMB      23              0.0000000000
      2963        23  23SM      H9F            -7.7880719503       23.8073395067       13.5925557876  MEMB      23              0.0000000000
      2964        23  23SM      H9G            -7.9333411890       22.0269798776       13.7966722270  MEMB      23              0.0000000000
      2965        23  23SM      C10F           -7.6236588162       22.7148562849       11.7206569023  MEMB      23              0.0000000000
      2966        23  23SM      H10F           -7.0973317879       21.8025277109       11.3762796569  MEMB      23              0.0000000000
      2967        23  23SM      H10G           -7.1099710570       23.5782502049       11.2496556684  MEMB      23              0.0000000000
      2968        23  23SM      C11F           -9.0424753380       22.6555155318       11.1698111979  MEMB      23              0.0000000000
      2969        23  23SM      H11F           -9.5430154517       23.6294161584       11.3410114239  MEMB      23              0.0000000000
      2970        23  23SM      H11G           -9.6356592167       21.8754009262       11.6992526971  MEMB      23              0.0000000000
      2971        23  23SM      C12F           -8.9794694450       22.3265783370        9.6612866338  MEMB      23              0.0000000000
      2972        23  23SM      H12F           -9.9951399799       22.0999360493        9.2829247858  MEMB      23              0.0000000000
      2973        23  23SM      H12G           -8.3759146422       21.4020637622        9.5337269295  MEMB      23              0.0000000000
      2974        23  23SM      C13F           -8.3556524024       23.4436823734        8.8050374146  MEMB      23              0.0000000000
      2975        23  23SM      H13F           -7.2882651361       23.5516039090        9.0774531769  MEMB      23              0.0000000000
      2976        23  23SM      H13G           -8.8806017644       24.3879384155        9.0863602615  MEMB      23              0.0000000000
      2977        23  23SM      C14F           -8.5067098044       23.2692314892        7.2743210639  MEMB      23              0.0000000000
      2978        23  23SM      H14F           -8.4583000489       24.2676027751        6.7861696527  MEMB      23              0.0000000000
      2979        23  23SM      H14G           -9.5350938281       22.8742270075        7.1218217102  MEMB      23              0.0000000000
      2980        23  23SM      C15F           -7.5292588631       22.3057367569        6.5557665062  MEMB      23              0.0000000000
      2981        23  23SM      H15F           -8.1572376954       21.5466696265        6.0398650008  MEMB      23              0.0000000000
      2982        23  23SM      H15G           -6.8958071368       21.7771112674        7.2955931762  MEMB      23              0.0000000000
      2983        23  23SM      C16F           -6.6349462509       22.8774399417        5.4315721225  MEMB      23              0.0000000000
      2984        23  23SM      H16F           -5.7993605035       23.4586984922        5.8524457816  MEMB      23              0.0000000000
      2985        23  23SM      H16G           -7.2006039582       23.5729407092        4.7824873649  MEMB      23              0.0000000000
      2986        23  23SM      C17F           -6.0010934429       21.7762482611        4.5547870019  MEMB      23              0.0000000000
      2987        23  23SM      H17F           -6.7689089707       21.0523721847        4.2028050453  MEMB      23              0.0000000000
      2988        23  23SM      H17G           -5.3041463891       21.2032219213        5.2111070214  MEMB      23              0.0000000000
      2989        23  23SM      C18F           -5.1926747392       22.3366330666        3.3614218416  MEMB      23              0.0000000000
      2990        23  23SM      H18F           -4.6359319887       21.4848431455        2.9047961924  MEMB      23              0.0000000000
      2991        23  23SM      H18G           -4.4468238813       23.0556478035        3.7588788842  MEMB      23              0.0000000000
      2992        23  23SM      C19F           -5.9928419217       22.9984968903        2.2089484784  MEMB      23              0.0000000000
      2993        23  23SM      H19F           -5.3568467686       23.7649377404        1.7131994777  MEMB      23              0.0000000000
      2994        23  23SM      H19G           -6.8414356581       23.5728005253        2.6054936376  MEMB      23              0.0000000000
      2995        23  23SM      C20F           -6.3445960934       21.8997240733        1.1870464262  MEMB      23              0.0000000000
      2996        23  23SM      H20F           -6.5016895326       20.9764105591        1.8012867895  MEMB      23              0.0000000000
      2997        23  23SM      H20G           -5.4355793387       21.7132893535        0.5786778562  MEMB      23              0.0000000000
      2998        23  23SM      C21F           -7.5862218199       21.9025096665        0.2620288504  MEMB      23              0.0000000000
      2999        23  23SM      H21F           -8.4033174988       21.4235532827        0.8527610502  MEMB      23              0.0000000000
      3000        23  23SM      H21G           -7.3400326027       21.2095060636       -0.5825691005  MEMB      23              0.0000000000
      3001        23  23SM      C22F           -8.2439262871       23.1560747237       -0.3314615707  MEMB      23              0.0000000000
      3002        23  23SM      H22F           -8.0379859839       23.1708828339       -1.4282631792  MEMB      23              0.0000000000
      3003        23  23SM      H22G           -7.8419600474       24.0947748345        0.1021674801  MEMB      23              0.0000000000
      3004        23  23SM      C23F           -9.7713399872       23.0513367821       -0.1572957721  MEMB      23              0.0000000000
      3005        23  23SM      H23F          -10.3325052596       23.8192500440       -0.7149520528  MEMB      23              0.0000000000
      3006        23  23SM      H23G          -10.0726535722       23.1508352601        0.8959251083  MEMB      23              0.0000000000
      3007        23  23SM      H23H          -10.1207720613       22.0498593850       -0.4882151932  MEMB      23              0.0000000000
      3008        24  DOPC      N             -13.2450455630      -18.7872678780       17.8471368858  MEMB      24              0.0000000000
      3009        24  DOPC      C12           -13.3978178038      -18.7461754860       19.3623129453  MEMB      24              0.0000000000
      3010        24  DOPC      H12A          -12.6003972114      -19.3107076513       19.8393272102  MEMB      24              0.0000000000
      3011        24  DOPC      H12B          -14.3288641199      -19.2212781845       19.6441548104  MEMB      24              0.0000000000
      3012        24  DOPC      C13           -14.2857841873      -17.9155471780       17.2368686462  MEMB      24              0.0000000000
      3013        24  DOPC      H13A          -15.2523974250      -18.0727528139       17.6927609518  MEMB      24              0.0000000000
      3014        24  DOPC      H13B          -14.0020685449      -16.8756190169       17.4344431305  MEMB      24              0.0000000000
      3015        24  DOPC      H13C          -14.3427805443      -18.0595694644       16.1683072704  MEMB      24              0.0000000000
      3016        24  DOPC      C14           -13.3084623820      -20.1828341272       17.3352235974  MEMB      24              0.0000000000
      3017        24  DOPC      H14A          -14.2512525284      -20.6653843412       17.5547683225  MEMB      24              0.0000000000
      3018        24  DOPC      H14B          -13.1483833131      -20.2580247980       16.2627231514  MEMB      24              0.0000000000
      3019        24  DOPC      H14C          -12.5262919399      -20.7979744203       17.7732608553  MEMB      24              0.0000000000
      3020        24  DOPC      C15           -11.9172212885      -18.2207222046       17.4706189734  MEMB      24              0.0000000000
      3021        24  DOPC      H15A          -11.8793741015      -17.1981125389       17.8377847916  MEMB      24              0.0000000000
      3022        24  DOPC      H15B          -11.7295807766      -18.2244654508       16.4069728700  MEMB      24              0.0000000000
      3023        24  DOPC      H15C          -11.1265697225      -18.7535631816       17.9813556355  MEMB      24              0.0000000000
      3024        24  DOPC      C11           -13.3396689518      -17.3620500323       20.0366456261  MEMB      24              0.0000000000
      3025        24  DOPC      H11A          -13.9944482393      -16.6304332403       19.5064944960  MEMB      24              0.0000000000
      3026        24  DOPC      H11B          -13.7152246970      -17.4834968229       21.0811980756  MEMB      24              0.0000000000
      3027        24  DOPC      P             -11.8059971497      -15.4307043559       20.6655474077  MEMB      24              0.0000000000
      3028        24  DOPC      O13           -10.4317209724      -15.2065512665       21.1540880083  MEMB      24              0.0000000000
      3029        24  DOPC      O14           -12.9131688621      -15.1332377476       21.5911360414  MEMB      24              0.0000000000
      3030        24  DOPC      O12           -11.9913654577      -16.9090916811       20.0908505574  MEMB      24              0.0000000000
      3031        24  DOPC      O11           -12.0359780340      -14.5932061503       19.3630549706  MEMB      24              0.0000000000
      3032        24  DOPC      C1            -11.2556836781      -14.8119121821       18.2109364821  MEMB      24              0.0000000000
      3033        24  DOPC      HA            -10.8925672164      -15.8512902404       18.0934362180  MEMB      24              0.0000000000
      3034        24  DOPC      HB            -10.3588561630      -14.1659040402       18.3018226617  MEMB      24              0.0000000000
      3035        24  DOPC      C2            -12.0476295736      -14.3213532003       16.9879383043  MEMB      24              0.0000000000
      3036        24  DOPC      HS            -12.5040981584      -13.3784470803       17.3521771804  MEMB      24              0.0000000000
      3037        24  DOPC      O21           -13.0407034145      -15.2604215560       16.4952750118  MEMB      24              0.0000000000
      3038        24  DOPC      C21           -14.0689812603      -14.6079981023       15.9201875062  MEMB      24              0.0000000000
      3039        24  DOPC      O22           -14.3559393544      -13.4524537704       16.1238292936  MEMB      24              0.0000000000
      3040        24  DOPC      C22           -14.8548904163      -15.5348588812       15.0006418288  MEMB      24              0.0000000000
      3041        24  DOPC      H2R           -15.8226578221      -15.7266298677       15.5138002990  MEMB      24              0.0000000000
      3042        24  DOPC      H2S           -14.3282175057      -16.4932081723       14.8527810054  MEMB      24              0.0000000000
      3043        24  DOPC      C3            -11.0715547152      -14.0224894069       15.8457977126  MEMB      24              0.0000000000
      3044        24  DOPC      HX            -10.3431643100      -13.2401252360       16.1437106420  MEMB      24              0.0000000000
      3045        24  DOPC      HY            -11.7053618355      -13.6413422929       15.0036458581  MEMB      24              0.0000000000
      3046        24  DOPC      O31           -10.3738028324      -15.2328327234       15.5205708142  MEMB      24              0.0000000000
      3047        24  DOPC      C31           -10.1484480847      -15.3132522543       14.2287716274  MEMB      24              0.0000000000
      3048        24  DOPC      O32           -10.0409497247      -14.3705397289       13.4655196690  MEMB      24              0.0000000000
      3049        24  DOPC      C32           -10.1283796386      -16.7663950983       13.8673316950  MEMB      24              0.0000000000
      3050        24  DOPC      H2X            -9.4071010365      -16.9288125796       13.0394316381  MEMB      24              0.0000000000
      3051        24  DOPC      H2Y            -9.8276047557      -17.3695021781       14.7528588089  MEMB      24              0.0000000000
      3052        24  DOPC      C23           -15.1377538106      -14.8736396421       13.6320342493  MEMB      24              0.0000000000
      3053        24  DOPC      H3R           -15.4151383205      -13.7957805767       13.7368979592  MEMB      24              0.0000000000
      3054        24  DOPC      H3S           -16.0053269026      -15.4165157970       13.1882947102  MEMB      24              0.0000000000
      3055        24  DOPC      C24           -13.9926396973      -14.9436145677       12.6400219172  MEMB      24              0.0000000000
      3056        24  DOPC      H4R           -13.5787234338      -15.9692029130       12.6426668817  MEMB      24              0.0000000000
      3057        24  DOPC      H4S           -13.2010646307      -14.2210834288       12.9493363978  MEMB      24              0.0000000000
      3058        24  DOPC      C25           -14.4146335689      -14.6270283000       11.2004267703  MEMB      24              0.0000000000
      3059        24  DOPC      H5R           -15.0698543616      -13.7274505373       11.1754255746  MEMB      24              0.0000000000
      3060        24  DOPC      H5S           -14.9914810963      -15.4855478392       10.7905782826  MEMB      24              0.0000000000
      3061        24  DOPC      C26           -13.1598193556      -14.3537078592       10.3734694389  MEMB      24              0.0000000000
      3062        24  DOPC      H6R           -12.2890370904      -14.7359420470       10.9519726706  MEMB      24              0.0000000000
      3063        24  DOPC      H6S           -13.0422274587      -13.2619537482       10.2918213773  MEMB      24              0.0000000000
      3064        24  DOPC      C27           -13.1395518960      -14.9714468725        8.9774131217  MEMB      24              0.0000000000
      3065        24  DOPC      H7R           -13.7706398199      -14.3657120026        8.2899033150  MEMB      24              0.0000000000
      3066        24  DOPC      H7S           -13.6241818765      -15.9583188482        9.0471222734  MEMB      24              0.0000000000
      3067        24  DOPC      C28           -11.7116210391      -15.0967804483        8.3952835993  MEMB      24              0.0000000000
      3068        24  DOPC      H8R           -11.2455316098      -14.0915899472        8.3660083075  MEMB      24              0.0000000000
      3069        24  DOPC      H8S           -11.8196024615      -15.4066622856        7.3328982171  MEMB      24              0.0000000000
      3070        24  DOPC      C29           -10.7698247141      -15.9947809397        9.1667533653  MEMB      24              0.0000000000
      3071        24  DOPC      H9R           -10.5556573512      -15.6779183109       10.1997934412  MEMB      24              0.0000000000
      3072        24  DOPC      C210          -10.2208387641      -17.1349330070        8.7181436026  MEMB      24              0.0000000000
      3073        24  DOPC      H10R           -9.5751425084      -17.7283502348        9.3850476169  MEMB      24              0.0000000000
      3074        24  DOPC      C211          -10.4547364563      -17.7304901635        7.3568265050  MEMB      24              0.0000000000
      3075        24  DOPC      H11R          -11.3674110976      -17.3219079036        6.8661528583  MEMB      24              0.0000000000
      3076        24  DOPC      H11S          -10.6618107609      -18.8080585116        7.4904545409  MEMB      24              0.0000000000
      3077        24  DOPC      C212           -9.3122575251      -17.5925365174        6.3528132856  MEMB      24              0.0000000000
      3078        24  DOPC      H12R           -8.5812730685      -16.8145368949        6.6665322910  MEMB      24              0.0000000000
      3079        24  DOPC      H12S           -9.7608545276      -17.2726532442        5.3907605221  MEMB      24              0.0000000000
      3080        24  DOPC      C213           -8.6122627747      -18.9095565703        6.0601932696  MEMB      24              0.0000000000
      3081        24  DOPC      H13R           -8.2193247691      -19.3138980337        7.0206360606  MEMB      24              0.0000000000
      3082        24  DOPC      H13S           -7.7424588454      -18.7017733302        5.3945262599  MEMB      24              0.0000000000
      3083        24  DOPC      C214           -9.5205056467      -19.9732019663        5.4108874469  MEMB      24              0.0000000000
      3084        24  DOPC      H14R          -10.3847388662      -20.2285056874        6.0557872376  MEMB      24              0.0000000000
      3085        24  DOPC      H14S           -8.8995213805      -20.8796370227        5.3110076908  MEMB      24              0.0000000000
      3086        24  DOPC      C215          -10.0165396132      -19.6576180677        4.0033113171  MEMB      24              0.0000000000
      3087        24  DOPC      H15R           -9.0974466923      -19.5487253048        3.3839443036  MEMB      24              0.0000000000
      3088        24  DOPC      H15S          -10.5837671067      -18.7038335732        3.9646368615  MEMB      24              0.0000000000
      3089        24  DOPC      C216          -10.8589016769      -20.7701580573        3.3611448258  MEMB      24              0.0000000000
      3090        24  DOPC      H16R          -11.9299243157      -20.6656246592        3.6431862660  MEMB      24              0.0000000000
      3091        24  DOPC      H16S          -10.5161886925      -21.7685086697        3.6932834125  MEMB      24              0.0000000000
      3092        24  DOPC      C217          -10.6597666427      -20.6778595950        1.8542009479  MEMB      24              0.0000000000
      3093        24  DOPC      H17R           -9.5662508402      -20.7072585543        1.6432507681  MEMB      24              0.0000000000
      3094        24  DOPC      H17S          -11.0775413958      -19.6975316860        1.5645373258  MEMB      24              0.0000000000
      3095        24  DOPC      C218          -11.3235289727      -21.7021930979        0.9726387401  MEMB      24              0.0000000000
      3096        24  DOPC      H18R          -10.9846768545      -21.6143860650       -0.0824755549  MEMB      24              0.0000000000
      3097        24  DOPC      H18S          -12.4133061839      -21.5206867806        0.9930964842  MEMB      24              0.0000000000
      3098        24  DOPC      H18T          -11.0964490560      -22.7235643346        1.3332748530  MEMB      24              0.0000000000
      3099        24  DOPC      C33           -11.4754390595      -17.2537098969       13.3713728901  MEMB      24              0.0000000000
      3100        24  DOPC      H3X           -11.7097370051      -16.6948525382       12.4355001009  MEMB      24              0.0000000000
      3101        24  DOPC      H3Y           -12.2807127307      -17.0936991712       14.1198791454  MEMB      24              0.0000000000
      3102        24  DOPC      C34           -11.3186587311      -18.7321245762       13.0762181174  MEMB      24              0.0000000000
      3103        24  DOPC      H4X           -11.0189947376      -19.2641078568       14.0036318420  MEMB      24              0.0000000000
      3104        24  DOPC      H4Y           -10.4953955299      -18.8220517179       12.3267299941  MEMB      24              0.0000000000
      3105        24  DOPC      C35           -12.5587747456      -19.3833489000       12.5052065327  MEMB      24              0.0000000000
      3106        24  DOPC      H5X           -13.4301201990      -19.0693712677       13.1147877882  MEMB      24              0.0000000000
      3107        24  DOPC      H5Y           -12.4868636487      -20.4949010962       12.5396844322  MEMB      24              0.0000000000
      3108        24  DOPC      C36           -12.7590679142      -18.9309300107       11.0719542804  MEMB      24              0.0000000000
      3109        24  DOPC      H6X           -13.8400581598      -18.8631157056       10.8553107037  MEMB      24              0.0000000000
      3110        24  DOPC      H6Y           -12.3638356237      -17.9012428256       10.9303240217  MEMB      24              0.0000000000
      3111        24  DOPC      C37           -12.1064772777      -19.8656205076       10.0412455851  MEMB      24              0.0000000000
      3112        24  DOPC      H7X           -11.0579483256      -19.5201239913        9.9061278699  MEMB      24              0.0000000000
      3113        24  DOPC      H7Y           -12.0811546699      -20.9031283833       10.4381611582  MEMB      24              0.0000000000
      3114        24  DOPC      C38           -12.8083966240      -19.9049254533        8.6768444388  MEMB      24              0.0000000000
      3115        24  DOPC      H8X           -13.6384335841      -20.6349139446        8.7134748558  MEMB      24              0.0000000000
      3116        24  DOPC      H8Y           -12.1151580729      -20.2636344477        7.8868039749  MEMB      24              0.0000000000
      3117        24  DOPC      C39           -13.3359026055      -18.5335394855        8.3963132843  MEMB      24              0.0000000000
      3118        24  DOPC      H9X           -12.9204570913      -17.7387530977        9.0170366155  MEMB      24              0.0000000000
      3119        24  DOPC      C310          -14.1483895088      -18.1645922686        7.4289092861  MEMB      24              0.0000000000
      3120        24  DOPC      H10X          -14.5447314223      -17.1385743361        7.4258161414  MEMB      24              0.0000000000
      3121        24  DOPC      C311          -14.6967084868      -19.0833406427        6.4063358873  MEMB      24              0.0000000000
      3122        24  DOPC      H11X          -15.7793611715      -19.0564061033        6.5351083334  MEMB      24              0.0000000000
      3123        24  DOPC      H11Y          -14.3106865858      -20.1276152767        6.4628682866  MEMB      24              0.0000000000
      3124        24  DOPC      C312          -14.4688979049      -18.4859324599        5.0446379876  MEMB      24              0.0000000000
      3125        24  DOPC      H12X          -14.8699460646      -19.1920318748        4.2839738223  MEMB      24              0.0000000000
      3126        24  DOPC      H12Y          -13.3791917772      -18.3745890165        4.8476102244  MEMB      24              0.0000000000
      3127        24  DOPC      C313          -15.2164263645      -17.1517658155        4.9211525743  MEMB      24              0.0000000000
      3128        24  DOPC      H13X          -16.2060165976      -17.2141685445        5.4287915391  MEMB      24              0.0000000000
      3129        24  DOPC      H13Y          -14.6408027785      -16.3371407319        5.4146399374  MEMB      24              0.0000000000
      3130        24  DOPC      C314          -15.4462483230      -16.8345871146        3.4595636947  MEMB      24              0.0000000000
      3131        24  DOPC      H14X          -16.2084159002      -17.5606557894        3.1014788744  MEMB      24              0.0000000000
      3132        24  DOPC      H14Y          -15.8508995747      -15.8119425508        3.3516195737  MEMB      24              0.0000000000
      3133        24  DOPC      C315          -14.1512229075      -16.9667411983        2.6663966051  MEMB      24              0.0000000000
      3134        24  DOPC      H15X          -14.2903545390      -16.7141076141        1.6025259965  MEMB      24              0.0000000000
      3135        24  DOPC      H15Y          -13.8092514569      -18.0258292587        2.6665127266  MEMB      24              0.0000000000
      3136        24  DOPC      C316          -13.0335216891      -16.0912285947        3.2300170867  MEMB      24              0.0000000000
      3137        24  DOPC      H16X          -12.7776592589      -16.3691219416        4.2743466615  MEMB      24              0.0000000000
      3138        24  DOPC      H16Y          -12.1728423405      -16.3296237091        2.5850216453  MEMB      24              0.0000000000
      3139        24  DOPC      C317          -13.2577537382      -14.5856306723        3.1301517063  MEMB      24              0.0000000000
      3140        24  DOPC      H17X          -14.2745235844      -14.3117257504        3.4833498617  MEMB      24              0.0000000000
      3141        24  DOPC      H17Y          -12.5345254769      -14.0688387569        3.8028002422  MEMB      24              0.0000000000
      3142        24  DOPC      C318          -13.0340344376      -14.1192515545        1.6989560752  MEMB      24              0.0000000000
      3143        24  DOPC      H18X          -11.9511815869      -14.1058383245        1.4532707828  MEMB      24              0.0000000000
      3144        24  DOPC      H18Y          -13.5200324821      -14.8026274424        0.9784888315  MEMB      24              0.0000000000
      3145        24  DOPC      H18Z          -13.4530530581      -13.1108781935        1.5329274143  MEMB      24              0.0000000000
      3146        25  DOPE      N             -19.6526095943       13.7456285297       20.7119177068  MEMB      25              0.0000000000
      3147        25  DOPE      HN1           -20.0040973904       12.7702458207       20.7675854242  MEMB      25              0.0000000000
      3148        25  DOPE      HN2           -19.7267037625       14.2382925008       21.6252896131  MEMB      25              0.0000000000
      3149        25  DOPE      HN3           -20.1417399001       14.2597317062       19.9400939631  MEMB      25              0.0000000000
      3150        25  DOPE      C12           -18.2512597053       13.5933535360       20.2198167223  MEMB      25              0.0000000000
      3151        25  DOPE      H12A          -17.7032791964       12.9877036649       20.9639603436  MEMB      25              0.0000000000
      3152        25  DOPE      H12B          -17.8018728697       14.6044536718       20.1359337102  MEMB      25              0.0000000000
      3153        25  DOPE      C11           -18.3028365244       12.8685842257       18.8626762672  MEMB      25              0.0000000000
      3154        25  DOPE      H11A          -17.2810984298       12.5015926608       18.5989726704  MEMB      25              0.0000000000
      3155        25  DOPE      H11B          -18.5791052939       13.6076098367       18.0902350021  MEMB      25              0.0000000000
      3156        25  DOPE      P             -18.8741780290       10.3679094807       19.2429346310  MEMB      25              0.0000000000
      3157        25  DOPE      O13           -18.0224601808       10.5019057910       20.4481967882  MEMB      25              0.0000000000
      3158        25  DOPE      O14           -18.3474354584        9.6633157771       18.0735184729  MEMB      25              0.0000000000
      3159        25  DOPE      O11           -20.1651025340        9.6637736659       19.7490568829  MEMB      25              0.0000000000
      3160        25  DOPE      O12           -19.3068109333       11.8431315054       18.8374888007  MEMB      25              0.0000000000
      3161        25  DOPE      C1            -21.2939150404       10.2743414321       20.3118605959  MEMB      25              0.0000000000
      3162        25  DOPE      HA            -21.2176334439       11.3827382407       20.2850443462  MEMB      25              0.0000000000
      3163        25  DOPE      HB            -21.4056941898        9.9866463077       21.3810610232  MEMB      25              0.0000000000
      3164        25  DOPE      C2            -22.5573991527        9.8679547323       19.5252213197  MEMB      25              0.0000000000
      3165        25  DOPE      HS            -23.0648395029        9.0510023638       20.0852682357  MEMB      25              0.0000000000
      3166        25  DOPE      O21           -22.2670898082        9.4489904272       18.1753142722  MEMB      25              0.0000000000
      3167        25  DOPE      C21           -21.9940469923        8.2350093924       17.8553341760  MEMB      25              0.0000000000
      3168        25  DOPE      O22           -21.9671030570        7.2265100673       18.5461707684  MEMB      25              0.0000000000
      3169        25  DOPE      C22           -21.8596518796        8.1062873276       16.3380354786  MEMB      25              0.0000000000
      3170        25  DOPE      H2R           -22.8263330637        7.9483206808       15.8318045831  MEMB      25              0.0000000000
      3171        25  DOPE      H2S           -21.2996795947        7.1685115700       16.2687250479  MEMB      25              0.0000000000
      3172        25  DOPE      C3            -23.4747884193       11.1211575549       19.4723400741  MEMB      25              0.0000000000
      3173        25  DOPE      HX            -23.5606004741       11.5040462320       20.5151450824  MEMB      25              0.0000000000
      3174        25  DOPE      HY            -24.4861379183       10.8547468811       19.1153344106  MEMB      25              0.0000000000
      3175        25  DOPE      O31           -22.9199527536       12.1533502513       18.6430230976  MEMB      25              0.0000000000
      3176        25  DOPE      C31           -23.0994870168       11.9086620784       17.3558746943  MEMB      25              0.0000000000
      3177        25  DOPE      O32           -23.8842334498       11.0964586281       16.8857339203  MEMB      25              0.0000000000
      3178        25  DOPE      C32           -22.0937900132       12.7157595202       16.5717827932  MEMB      25              0.0000000000
      3179        25  DOPE      H2X           -21.9580526000       13.7025909459       17.0643111635  MEMB      25              0.0000000000
      3180        25  DOPE      H2Y           -21.1299332669       12.1713723495       16.6255653309  MEMB      25              0.0000000000
      3181        25  DOPE      C23           -21.0331279017        9.1439670044       15.5623901528  MEMB      25              0.0000000000
      3182        25  DOPE      H3R           -20.4829464346        9.7958127138       16.2830792078  MEMB      25              0.0000000000
      3183        25  DOPE      H3S           -21.7442973698        9.7694180488       15.0306230218  MEMB      25              0.0000000000
      3184        25  DOPE      C24           -19.9915119891        8.5508915094       14.5818440644  MEMB      25              0.0000000000
      3185        25  DOPE      H4R           -19.7193521403        7.5615966115       14.9729022594  MEMB      25              0.0000000000
      3186        25  DOPE      H4S           -19.0730690838        9.1326969203       14.7843753683  MEMB      25              0.0000000000
      3187        25  DOPE      C25           -20.3121858532        8.3713797076       13.0403068630  MEMB      25              0.0000000000
      3188        25  DOPE      H5R           -20.9120132271        7.4611358695       12.9990771074  MEMB      25              0.0000000000
      3189        25  DOPE      H5S           -19.3441253921        8.1670273013       12.5260382067  MEMB      25              0.0000000000
      3190        25  DOPE      C26           -21.0114830440        9.5431798664       12.2879775011  MEMB      25              0.0000000000
      3191        25  DOPE      H6R           -20.2233444190       10.1980146506       11.9089049872  MEMB      25              0.0000000000
      3192        25  DOPE      H6S           -21.6394600486        9.9587680376       13.0572554542  MEMB      25              0.0000000000
      3193        25  DOPE      C27           -22.0248182145        9.5945787613       11.1128562621  MEMB      25              0.0000000000
      3194        25  DOPE      H7R           -22.7367308512        8.7786600752       11.2134346442  MEMB      25              0.0000000000
      3195        25  DOPE      H7S           -21.5376748541        9.4705675376       10.1421902012  MEMB      25              0.0000000000
      3196        25  DOPE      C28           -22.7297541035       10.9993980165       11.0787081541  MEMB      25              0.0000000000
      3197        25  DOPE      H8R           -21.9394843865       11.7817544581       11.0192442993  MEMB      25              0.0000000000
      3198        25  DOPE      H8S           -23.2344356239       11.1433034712       12.0523929818  MEMB      25              0.0000000000
      3199        25  DOPE      C29           -23.7570663207       11.3321726003       10.0404145532  MEMB      25              0.0000000000
      3200        25  DOPE      H9R           -24.7955655887       11.4053887095       10.3905095173  MEMB      25              0.0000000000
      3201        25  DOPE      C210          -23.5169871943       11.7017369510        8.7895813165  MEMB      25              0.0000000000
      3202        25  DOPE      H10R          -24.3820847690       11.8310142518        8.1230899883  MEMB      25              0.0000000000
      3203        25  DOPE      C211          -22.1789284808       11.8623745015        8.1351119466  MEMB      25              0.0000000000
      3204        25  DOPE      H11R          -21.3305901308       11.6772268423        8.8288150712  MEMB      25              0.0000000000
      3205        25  DOPE      H11S          -22.0414930949       12.8847929281        7.7147617677  MEMB      25              0.0000000000
      3206        25  DOPE      C212          -22.2170573629       10.8498122942        6.9960761696  MEMB      25              0.0000000000
      3207        25  DOPE      H12R          -22.4874566270        9.8422262346        7.3872178825  MEMB      25              0.0000000000
      3208        25  DOPE      H12S          -21.2039658718       10.7743503102        6.5405439926  MEMB      25              0.0000000000
      3209        25  DOPE      C213          -23.2417612875       11.2475769400        5.9324585061  MEMB      25              0.0000000000
      3210        25  DOPE      H13R          -23.1653976442       12.3465943904        5.7744504756  MEMB      25              0.0000000000
      3211        25  DOPE      H13S          -24.2756733709       11.0138857792        6.2744565074  MEMB      25              0.0000000000
      3212        25  DOPE      C214          -23.0181643153       10.5462445754        4.6067880172  MEMB      25              0.0000000000
      3213        25  DOPE      H14R          -23.1974680335        9.4543625798        4.7311634330  MEMB      25              0.0000000000
      3214        25  DOPE      H14S          -21.9596907850       10.6927312143        4.2959433218  MEMB      25              0.0000000000
      3215        25  DOPE      C215          -23.9238132358       11.1203578899        3.5233533962  MEMB      25              0.0000000000
      3216        25  DOPE      H15R          -23.7326395971       12.2119725141        3.4125700546  MEMB      25              0.0000000000
      3217        25  DOPE      H15S          -24.9885364663       11.0095759376        3.8137407296  MEMB      25              0.0000000000
      3218        25  DOPE      C216          -23.6751268972       10.4175602446        2.1954601197  MEMB      25              0.0000000000
      3219        25  DOPE      H16R          -22.5893117992       10.4510075339        1.9578001778  MEMB      25              0.0000000000
      3220        25  DOPE      H16S          -24.2113192829       10.9753296483        1.3978063703  MEMB      25              0.0000000000
      3221        25  DOPE      C217          -24.1614129542        8.9667939771        2.1985151606  MEMB      25              0.0000000000
      3222        25  DOPE      H17R          -24.8185973745        8.7837117110        3.0785154039  MEMB      25              0.0000000000
      3223        25  DOPE      H17S          -23.2892280691        8.2844724051        2.3055781643  MEMB      25              0.0000000000
      3224        25  DOPE      C218          -24.9376348830        8.6432046033        0.9315812099  MEMB      25              0.0000000000
      3225        25  DOPE      H18R          -25.3105326800        7.6050484332        0.9271005489  MEMB      25              0.0000000000
      3226        25  DOPE      H18S          -24.2919184452        8.7978996656        0.0414602505  MEMB      25              0.0000000000
      3227        25  DOPE      H18T          -25.8353955759        9.2741534587        0.8286971809  MEMB      25              0.0000000000
      3228        25  DOPE      C33           -22.5683296068       12.9182836485       15.1236115633  MEMB      25              0.0000000000
      3229        25  DOPE      H3X           -22.5751344120       13.9989698078       14.9262259871  MEMB      25              0.0000000000
      3230        25  DOPE      H3Y           -23.6354405119       12.6158758572       15.0138716291  MEMB      25              0.0000000000
      3231        25  DOPE      C34           -21.7970480286       12.1522424322       14.0284364914  MEMB      25              0.0000000000
      3232        25  DOPE      H4X           -22.3710972021       11.2270060969       14.0857658516  MEMB      25              0.0000000000
      3233        25  DOPE      H4Y           -22.0132590659       12.6130471169       13.0454101842  MEMB      25              0.0000000000
      3234        25  DOPE      C35           -20.2411184218       12.0155478179       14.1498407532  MEMB      25              0.0000000000
      3235        25  DOPE      H5X           -19.8157038918       11.6848436355       15.1161287242  MEMB      25              0.0000000000
      3236        25  DOPE      H5Y           -20.2500208828       13.0703931786       14.2391784417  MEMB      25              0.0000000000
      3237        25  DOPE      C36           -19.1944565438       12.0576133482       12.9745517387  MEMB      25              0.0000000000
      3238        25  DOPE      H6X           -18.6907928954       13.0381573362       12.8847938507  MEMB      25              0.0000000000
      3239        25  DOPE      H6Y           -19.6852744026       11.9922675776       11.9900330598  MEMB      25              0.0000000000
      3240        25  DOPE      C37           -17.9795496567       11.1347015435       13.1438255742  MEMB      25              0.0000000000
      3241        25  DOPE      H7X           -17.3664206419       11.4663480820       14.0103003538  MEMB      25              0.0000000000
      3242        25  DOPE      H7Y           -18.3397609649       10.1385622772       13.4326996274  MEMB      25              0.0000000000
      3243        25  DOPE      C38           -17.0758151029       11.0389733290       11.9044912445  MEMB      25              0.0000000000
      3244        25  DOPE      H8X           -16.0184276825       11.1491072482       12.2430327068  MEMB      25              0.0000000000
      3245        25  DOPE      H8Y           -17.2614737495       11.8447207281       11.1638567535  MEMB      25              0.0000000000
      3246        25  DOPE      C39           -17.3153216900        9.6522596302       11.3743914925  MEMB      25              0.0000000000
      3247        25  DOPE      H9X           -17.1550145773        8.8772763410       12.1393619788  MEMB      25              0.0000000000
      3248        25  DOPE      C310          -17.6049572755        9.2262173893       10.1475013759  MEMB      25              0.0000000000
      3249        25  DOPE      H10X          -17.7326180625        8.1401041883       10.0089215056  MEMB      25              0.0000000000
      3250        25  DOPE      C311          -17.7780888056       10.0449128142        8.9094612231  MEMB      25              0.0000000000
      3251        25  DOPE      H11X          -18.3608082889       10.9683355113        9.1180532664  MEMB      25              0.0000000000
      3252        25  DOPE      H11Y          -16.7924256776       10.3324207507        8.4844411058  MEMB      25              0.0000000000
      3253        25  DOPE      C312          -18.5095725741        9.1433139716        7.9126338447  MEMB      25              0.0000000000
      3254        25  DOPE      H12X          -17.9021802774        8.2355353796        7.7044127228  MEMB      25              0.0000000000
      3255        25  DOPE      H12Y          -18.6420504135        9.6847113201        6.9490957562  MEMB      25              0.0000000000
      3256        25  DOPE      C313          -19.8948636161        8.7658049444        8.4405620444  MEMB      25              0.0000000000
      3257        25  DOPE      H13X          -19.8577951475        8.1923268374        9.3951876060  MEMB      25              0.0000000000
      3258        25  DOPE      H13Y          -20.3819055768        9.7449109936        8.6335258160  MEMB      25              0.0000000000
      3259        25  DOPE      C314          -20.7323112983        7.9790631608        7.4520068966  MEMB      25              0.0000000000
      3260        25  DOPE      H14X          -20.8048799879        8.5726867611        6.5172651677  MEMB      25              0.0000000000
      3261        25  DOPE      H14Y          -21.7755426730        7.8702820863        7.8166253457  MEMB      25              0.0000000000
      3262        25  DOPE      C315          -20.1520164272        6.5990473902        7.1806528552  MEMB      25              0.0000000000
      3263        25  DOPE      H15X          -20.4612492889        5.9213704397        7.9992312149  MEMB      25              0.0000000000
      3264        25  DOPE      H15Y          -19.0421422583        6.6122307389        7.1669297273  MEMB      25              0.0000000000
      3265        25  DOPE      C316          -20.6168714069        6.1089423953        5.8264936462  MEMB      25              0.0000000000
      3266        25  DOPE      H16X          -21.7060925071        6.3276771591        5.7164978093  MEMB      25              0.0000000000
      3267        25  DOPE      H16Y          -20.4821281580        5.0096316080        5.7445349116  MEMB      25              0.0000000000
      3268        25  DOPE      C317          -19.8253162209        6.7945135030        4.7129119409  MEMB      25              0.0000000000
      3269        25  DOPE      H17X          -19.7031867914        7.8849203608        4.9096012880  MEMB      25              0.0000000000
      3270        25  DOPE      H17Y          -18.8048047049        6.3536082415        4.6487934996  MEMB      25              0.0000000000
      3271        25  DOPE      C318          -20.5631825417        6.6308977125        3.4100548931  MEMB      25              0.0000000000
      3272        25  DOPE      H18X          -21.5834648296        7.0679889250        3.5142890576  MEMB      25              0.0000000000
      3273        25  DOPE      H18Y          -20.0631094713        7.1486758867        2.5797069672  MEMB      25              0.0000000000
      3274        25  DOPE      H18Z          -20.6542874982        5.5491054219        3.1685429772  MEMB      25              0.0000000000
      3275        26  DOPE      N              10.6308894657       19.6672433019       22.1299935294  MEMB      26              0.0000000000
      3276        26  DOPE      HN1            11.6456240660       19.8048035653       21.9584400958  MEMB      26              0.0000000000
      3277        26  DOPE      HN2            10.2333694282       20.5764049317       22.4626010234  MEMB      26              0.0000000000
      3278        26  DOPE      HN3            10.5033210770       18.9517060785       22.8870692861  MEMB      26              0.0000000000
      3279        26  DOPE      C12             9.8806183412       19.2247347916       20.8888139227  MEMB      26              0.0000000000
      3280        26  DOPE      H12A            8.8072296210       19.3359274418       21.1290210512  MEMB      26              0.0000000000
      3281        26  DOPE      H12B           10.1249448504       18.1567263803       20.7023239267  MEMB      26              0.0000000000
      3282        26  DOPE      C11            10.1451746212       20.0636187891       19.6208158717  MEMB      26              0.0000000000
      3283        26  DOPE      H11A           11.2010014706       19.9140744247       19.2979244717  MEMB      26              0.0000000000
      3284        26  DOPE      H11B           10.0005148026       21.1483959298       19.8282701629  MEMB      26              0.0000000000
      3285        26  DOPE      P               7.8517642317       20.2370456014       18.2806974353  MEMB      26              0.0000000000
      3286        26  DOPE      O13             7.9594294845       21.6327850938       17.8333859573  MEMB      26              0.0000000000
      3287        26  DOPE      O14             6.9803971040       19.9483110021       19.4442047133  MEMB      26              0.0000000000
      3288        26  DOPE      O11             7.2974507756       19.4339126198       17.0558170003  MEMB      26              0.0000000000
      3289        26  DOPE      O12             9.2995660110       19.6280784423       18.5554505088  MEMB      26              0.0000000000
      3290        26  DOPE      C1              7.7077517056       18.1086735122       16.7736611696  MEMB      26              0.0000000000
      3291        26  DOPE      HA              6.7793374295       17.4988293891       16.6765516375  MEMB      26              0.0000000000
      3292        26  DOPE      HB              8.3275015718       17.6326993993       17.5676741201  MEMB      26              0.0000000000
      3293        26  DOPE      C2              8.4464615281       18.0220715765       15.4196064691  MEMB      26              0.0000000000
      3294        26  DOPE      HS              8.2845542936       16.9513585596       15.1330668541  MEMB      26              0.0000000000
      3295        26  DOPE      O21             9.8629162877       18.3707978198       15.5328905560  MEMB      26              0.0000000000
      3296        26  DOPE      C21            10.4656345302       17.9302918087       14.4231405609  MEMB      26              0.0000000000
      3297        26  DOPE      O22             9.9070514107       17.1593671972       13.6620422841  MEMB      26              0.0000000000
      3298        26  DOPE      C22            11.8375291152       18.5746055246       14.1896490669  MEMB      26              0.0000000000
      3299        26  DOPE      H2R            12.4802868489       18.3430430191       15.0633436940  MEMB      26              0.0000000000
      3300        26  DOPE      H2S            11.6941804487       19.6719742320       14.1245293068  MEMB      26              0.0000000000
      3301        26  DOPE      C3              7.7757743864       18.9312867540       14.3415001290  MEMB      26              0.0000000000
      3302        26  DOPE      HX              6.7284208696       19.1226527172       14.6594452891  MEMB      26              0.0000000000
      3303        26  DOPE      HY              7.7550642123       18.3696681432       13.3830036075  MEMB      26              0.0000000000
      3304        26  DOPE      O31             8.4237477946       20.2015343878       14.2297116939  MEMB      26              0.0000000000
      3305        26  DOPE      C31             8.8738135148       20.6510509021       13.0938353505  MEMB      26              0.0000000000
      3306        26  DOPE      O32             9.0496437309       20.0305414404       12.0588312872  MEMB      26              0.0000000000
      3307        26  DOPE      C32             9.1027126347       22.1463889586       13.3050346863  MEMB      26              0.0000000000
      3308        26  DOPE      H2X             8.8380925124       22.3971129527       14.3542398658  MEMB      26              0.0000000000
      3309        26  DOPE      H2Y            10.1671571840       22.3927796166       13.1342040368  MEMB      26              0.0000000000
      3310        26  DOPE      C23            12.5549428365       18.0784002078       12.9046010530  MEMB      26              0.0000000000
      3311        26  DOPE      H3R            12.9106760824       17.0379320459       13.0382690891  MEMB      26              0.0000000000
      3312        26  DOPE      H3S            13.4737789763       18.6836164997       12.7424591686  MEMB      26              0.0000000000
      3313        26  DOPE      C24            11.6949750662       18.1353865558       11.6413150652  MEMB      26              0.0000000000
      3314        26  DOPE      H4R            11.3979308228       19.1731122829       11.3882474905  MEMB      26              0.0000000000
      3315        26  DOPE      H4S            10.7626239562       17.5490719056       11.7265573094  MEMB      26              0.0000000000
      3316        26  DOPE      C25            12.3397586044       17.4856493944       10.4422705547  MEMB      26              0.0000000000
      3317        26  DOPE      H5R            12.5139596042       16.4045566606       10.6476252873  MEMB      26              0.0000000000
      3318        26  DOPE      H5S            13.3263597766       17.9602989275       10.2775536389  MEMB      26              0.0000000000
      3319        26  DOPE      C26            11.3612196151       17.6023862555        9.2660296805  MEMB      26              0.0000000000
      3320        26  DOPE      H6R            11.1470088778       18.6584065031        9.0067058687  MEMB      26              0.0000000000
      3321        26  DOPE      H6S            10.4005730959       17.2138330834        9.6472539353  MEMB      26              0.0000000000
      3322        26  DOPE      C27            11.8363801456       16.8229791126        8.0334568657  MEMB      26              0.0000000000
      3323        26  DOPE      H7R            11.1258700518       16.7112988225        7.1951769804  MEMB      26              0.0000000000
      3324        26  DOPE      H7S            12.1241103523       15.7992849431        8.3757313516  MEMB      26              0.0000000000
      3325        26  DOPE      C28            13.0479833897       17.5195198341        7.4710853443  MEMB      26              0.0000000000
      3326        26  DOPE      H8R            13.6049399711       16.8518403844        6.7818167814  MEMB      26              0.0000000000
      3327        26  DOPE      H8S            13.6296620522       17.6370364265        8.3853219399  MEMB      26              0.0000000000
      3328        26  DOPE      C29            13.0224845581       18.9320277937        7.0229997633  MEMB      26              0.0000000000
      3329        26  DOPE      H9R            12.5674063497       19.6429413935        7.7347063136  MEMB      26              0.0000000000
      3330        26  DOPE      C210           13.4277989617       19.3678830304        5.8353410967  MEMB      26              0.0000000000
      3331        26  DOPE      H10R           13.3951436487       20.4511630550        5.6842298041  MEMB      26              0.0000000000
      3332        26  DOPE      C211           13.9775198672       18.6249269040        4.6499027933  MEMB      26              0.0000000000
      3333        26  DOPE      H11R           15.0489233882       18.3624874537        4.7332066695  MEMB      26              0.0000000000
      3334        26  DOPE      H11S           13.9730894004       19.3590158991        3.8237449618  MEMB      26              0.0000000000
      3335        26  DOPE      C212           13.0587215201       17.5554304945        4.0157237709  MEMB      26              0.0000000000
      3336        26  DOPE      H12R           12.8007774676       16.7467529791        4.7394931988  MEMB      26              0.0000000000
      3337        26  DOPE      H12S           13.7107295180       17.1429873427        3.2260662614  MEMB      26              0.0000000000
      3338        26  DOPE      C213           11.7995601075       18.2575265923        3.4093314293  MEMB      26              0.0000000000
      3339        26  DOPE      H13R           12.1806895597       19.2309810086        3.0406927123  MEMB      26              0.0000000000
      3340        26  DOPE      H13S           11.1299571565       18.4246535544        4.2789239044  MEMB      26              0.0000000000
      3341        26  DOPE      C214           10.9496337767       17.9724461064        2.1173425209  MEMB      26              0.0000000000
      3342        26  DOPE      H14R           10.0857433465       18.6470980984        2.3059743172  MEMB      26              0.0000000000
      3343        26  DOPE      H14S           10.4242177301       16.9951441948        2.0920175414  MEMB      26              0.0000000000
      3344        26  DOPE      C215           11.5685776948       18.4812375629        0.7567111820  MEMB      26              0.0000000000
      3345        26  DOPE      H15R           12.4626427901       17.9293491652        0.5280294912  MEMB      26              0.0000000000
      3346        26  DOPE      H15S           12.0086205450       19.4911867324        0.8386613279  MEMB      26              0.0000000000
      3347        26  DOPE      C216           10.8281342051       18.2751407528       -0.5884947979  MEMB      26              0.0000000000
      3348        26  DOPE      H16R            9.7721341454       18.5919068726       -0.4919594095  MEMB      26              0.0000000000
      3349        26  DOPE      H16S           10.8285555571       17.1767646454       -0.7329014556  MEMB      26              0.0000000000
      3350        26  DOPE      C217           11.4983780063       18.9268888422       -1.8485335793  MEMB      26              0.0000000000
      3351        26  DOPE      H17R           11.5315548552       20.0114253224       -1.6896695893  MEMB      26              0.0000000000
      3352        26  DOPE      H17S           10.9205246650       18.9284853442       -2.7912444591  MEMB      26              0.0000000000
      3353        26  DOPE      C218           12.8337842789       18.3541441067       -2.3324685900  MEMB      26              0.0000000000
      3354        26  DOPE      H18R           13.3460377032       19.1791531472       -2.8793071765  MEMB      26              0.0000000000
      3355        26  DOPE      H18S           12.7018568891       17.4997067068       -3.0317375901  MEMB      26              0.0000000000
      3356        26  DOPE      H18T           13.4914594838       17.9942874063       -1.5214405213  MEMB      26              0.0000000000
      3357        26  DOPE      C33             8.1853260365       22.9589990210       12.3900365983  MEMB      26              0.0000000000
      3358        26  DOPE      H3X             8.1835802367       24.0235781984       12.7190036938  MEMB      26              0.0000000000
      3359        26  DOPE      H3Y             7.1320063213       22.5956624843       12.4427040611  MEMB      26              0.0000000000
      3360        26  DOPE      C34             8.6880666923       22.8569598694       10.9701118976  MEMB      26              0.0000000000
      3361        26  DOPE      H4X             9.7358934722       22.4816933878       10.9383297301  MEMB      26              0.0000000000
      3362        26  DOPE      H4Y             8.0617762012       22.0952928082       10.4478912040  MEMB      26              0.0000000000
      3363        26  DOPE      C35             8.6713923262       24.1780210321       10.2320389491  MEMB      26              0.0000000000
      3364        26  DOPE      H5X             9.6456025632       24.6994313518       10.3766072081  MEMB      26              0.0000000000
      3365        26  DOPE      H5Y             7.8819321575       24.8671778522       10.5937576059  MEMB      26              0.0000000000
      3366        26  DOPE      C36             8.4617235242       23.8569143450        8.7706689718  MEMB      26              0.0000000000
      3367        26  DOPE      H6X             7.4198217194       24.0520621052        8.4696835269  MEMB      26              0.0000000000
      3368        26  DOPE      H6Y             8.6642966154       22.7751623834        8.5880287664  MEMB      26              0.0000000000
      3369        26  DOPE      C37             9.3975673179       24.6484455821        7.8958806718  MEMB      26              0.0000000000
      3370        26  DOPE      H7X             9.4694167866       25.6853142036        8.2642119607  MEMB      26              0.0000000000
      3371        26  DOPE      H7Y            10.4202887158       24.2590159579        8.0282966712  MEMB      26              0.0000000000
      3372        26  DOPE      C38             8.9496844566       24.6733970989        6.4252111124  MEMB      26              0.0000000000
      3373        26  DOPE      H8X             9.8612153694       24.9270789019        5.8947929589  MEMB      26              0.0000000000
      3374        26  DOPE      H8Y             8.2643416796       25.5072600929        6.2640228210  MEMB      26              0.0000000000
      3375        26  DOPE      C39             8.2819556509       23.4779386357        5.8318919575  MEMB      26              0.0000000000
      3376        26  DOPE      H9X             8.0557026080       22.7068986714        6.5748338119  MEMB      26              0.0000000000
      3377        26  DOPE      C310            8.0848693420       23.1553150293        4.5438538729  MEMB      26              0.0000000000
      3378        26  DOPE      H10X            7.6599216418       22.1536344602        4.3986901055  MEMB      26              0.0000000000
      3379        26  DOPE      C311            8.4461122385       23.8399267362        3.2304297555  MEMB      26              0.0000000000
      3380        26  DOPE      H11X            8.9055588450       24.8401573286        3.3271283919  MEMB      26              0.0000000000
      3381        26  DOPE      H11Y            9.2902435535       23.3340074943        2.7520399531  MEMB      26              0.0000000000
      3382        26  DOPE      C312            7.3148443197       23.9009171257        2.1810509773  MEMB      26              0.0000000000
      3383        26  DOPE      H12X            7.6822691035       24.1700120527        1.1613979315  MEMB      26              0.0000000000
      3384        26  DOPE      H12Y            6.6960191363       24.7114561613        2.5540262458  MEMB      26              0.0000000000
      3385        26  DOPE      C313            6.2958273833       22.7667929134        2.0993298503  MEMB      26              0.0000000000
      3386        26  DOPE      H13X            6.1173739404       22.3090760327        3.0908241134  MEMB      26              0.0000000000
      3387        26  DOPE      H13Y            5.3093460408       23.1813177418        1.7767107851  MEMB      26              0.0000000000
      3388        26  DOPE      C314            6.7454373446       21.7524351388        1.0802713093  MEMB      26              0.0000000000
      3389        26  DOPE      H14X            7.8328520713       21.8331028184        0.9178024239  MEMB      26              0.0000000000
      3390        26  DOPE      H14Y            6.3495429206       22.0020588299        0.0879985870  MEMB      26              0.0000000000
      3391        26  DOPE      C315            6.3937605644       20.3346180400        1.4750688706  MEMB      26              0.0000000000
      3392        26  DOPE      H15X            5.3011250662       20.2119014364        1.5497291231  MEMB      26              0.0000000000
      3393        26  DOPE      H15Y            6.8049071081       20.0748770689        2.4734095258  MEMB      26              0.0000000000
      3394        26  DOPE      C316            6.9484678098       19.4213351051        0.4022918901  MEMB      26              0.0000000000
      3395        26  DOPE      H16X            8.0256950659       19.6536693560        0.2498627833  MEMB      26              0.0000000000
      3396        26  DOPE      H16Y            6.4100540887       19.6525286114       -0.5423846424  MEMB      26              0.0000000000
      3397        26  DOPE      C317            6.7881600478       17.9620417037        0.7615572231  MEMB      26              0.0000000000
      3398        26  DOPE      H17X            7.7954398148       17.4964194449        0.8365897551  MEMB      26              0.0000000000
      3399        26  DOPE      H17Y            6.3816743980       17.9043050702        1.7834925412  MEMB      26              0.0000000000
      3400        26  DOPE      C318            5.9028686731       17.1938920393       -0.2211897069  MEMB      26              0.0000000000
      3401        26  DOPE      H18X            6.1858258416       17.3676856664       -1.2662486067  MEMB      26              0.0000000000
      3402        26  DOPE      H18Y            5.9095989565       16.1073360718        0.0065969614  MEMB      26              0.0000000000
      3403        26  DOPE      H18Z            4.8798086358       17.5493351782       -0.2632885535  MEMB      26              0.0000000000
      3404        27  DOPE      N              16.4625050359       17.0357642469       22.0324536609  MEMB      27              0.0000000000
      3405        27  DOPE      HN1            15.6984859278       16.4267334680       22.4152974395  MEMB      27              0.0000000000
      3406        27  DOPE      HN2            17.0067303408       16.3404507563       21.4636184213  MEMB      27              0.0000000000
      3407        27  DOPE      HN3            17.0253670569       17.4226210629       22.8131856972  MEMB      27              0.0000000000
      3408        27  DOPE      C12            15.9259670437       18.0764012388       21.0955993562  MEMB      27              0.0000000000
      3409        27  DOPE      H12A           16.7951406643       18.5941279161       20.6395669602  MEMB      27              0.0000000000
      3410        27  DOPE      H12B           15.3026577576       18.7884339551       21.6705070652  MEMB      27              0.0000000000
      3411        27  DOPE      C11            15.1522872209       17.3961084799       19.9747253948  MEMB      27              0.0000000000
      3412        27  DOPE      H11A           14.6797493097       18.1465579413       19.3016218458  MEMB      27              0.0000000000
      3413        27  DOPE      H11B           14.3442153051       16.7746766819       20.4120339970  MEMB      27              0.0000000000
      3414        27  DOPE      P              15.4485723986       15.4774010959       18.3259372235  MEMB      27              0.0000000000
      3415        27  DOPE      O13            14.3047066596       15.9989130995       17.5630432899  MEMB      27              0.0000000000
      3416        27  DOPE      O14            15.2846056122       14.3449594733       19.2673833312  MEMB      27              0.0000000000
      3417        27  DOPE      O11            16.6849861366       15.2603646363       17.4236688900  MEMB      27              0.0000000000
      3418        27  DOPE      O12            16.0628375882       16.6049315495       19.2276177567  MEMB      27              0.0000000000
      3419        27  DOPE      C1             17.8276199691       14.7067086110       18.0672286162  MEMB      27              0.0000000000
      3420        27  DOPE      HA             17.6017544398       14.0044179898       18.8976678385  MEMB      27              0.0000000000
      3421        27  DOPE      HB             18.4671896768       15.5312714728       18.4496034013  MEMB      27              0.0000000000
      3422        27  DOPE      C2             18.5365675987       13.8067831594       17.0731893445  MEMB      27              0.0000000000
      3423        27  DOPE      HS             19.5096463185       13.5068631626       17.4736567110  MEMB      27              0.0000000000
      3424        27  DOPE      O21            18.7579274506       14.5070195091       15.8691137563  MEMB      27              0.0000000000
      3425        27  DOPE      C21            19.6377406964       15.4481286105       16.0159670430  MEMB      27              0.0000000000
      3426        27  DOPE      O22            20.2875020317       15.7283805954       17.0123050457  MEMB      27              0.0000000000
      3427        27  DOPE      C22            19.7062337734       16.1993938860       14.7276725324  MEMB      27              0.0000000000
      3428        27  DOPE      H2R            20.7745293782       16.4333247107       14.5967510248  MEMB      27              0.0000000000
      3429        27  DOPE      H2S            19.0839445013       17.1136102286       14.8124998277  MEMB      27              0.0000000000
      3430        27  DOPE      C3             17.7508004655       12.5054789410       16.7948904955  MEMB      27              0.0000000000
      3431        27  DOPE      HX             17.5502572073       11.9935983401       17.7609621172  MEMB      27              0.0000000000
      3432        27  DOPE      HY             18.4310877012       11.8522124451       16.2168339542  MEMB      27              0.0000000000
      3433        27  DOPE      O31            16.4976085294       12.7029280904       16.1258553675  MEMB      27              0.0000000000
      3434        27  DOPE      C31            16.5707106347       12.6830529627       14.8190623759  MEMB      27              0.0000000000
      3435        27  DOPE      O32            17.5530291058       12.4668297160       14.1373948259  MEMB      27              0.0000000000
      3436        27  DOPE      C32            15.1792360806       12.7312344464       14.2524608423  MEMB      27              0.0000000000
      3437        27  DOPE      H2X            15.0421548327       11.6966469249       13.8880235275  MEMB      27              0.0000000000
      3438        27  DOPE      H2Y            14.4339072112       12.9834006002       15.0332599424  MEMB      27              0.0000000000
      3439        27  DOPE      C23            19.3131868413       15.3848312338       13.4981819807  MEMB      27              0.0000000000
      3440        27  DOPE      H3R            18.2438741721       15.0994115191       13.5064621475  MEMB      27              0.0000000000
      3441        27  DOPE      H3S            19.8802802100       14.4581568745       13.4349415933  MEMB      27              0.0000000000
      3442        27  DOPE      C24            19.7535336569       16.1364859884       12.2762547376  MEMB      27              0.0000000000
      3443        27  DOPE      H4R            20.8519304747       16.3272079554       12.2871016195  MEMB      27              0.0000000000
      3444        27  DOPE      H4S            19.2582177118       17.0962003432       12.3801183828  MEMB      27              0.0000000000
      3445        27  DOPE      C25            19.3732130520       15.4275181038       11.0016228640  MEMB      27              0.0000000000
      3446        27  DOPE      H5R            19.2522931748       16.1754713536       10.1900184817  MEMB      27              0.0000000000
      3447        27  DOPE      H5S            18.4070040535       14.8919558654       11.1543120711  MEMB      27              0.0000000000
      3448        27  DOPE      C26            20.4776724808       14.4669926263       10.6006873831  MEMB      27              0.0000000000
      3449        27  DOPE      H6R            21.2071142287       14.3967601717       11.4303844403  MEMB      27              0.0000000000
      3450        27  DOPE      H6S            21.0136846311       14.8796932956        9.7250209737  MEMB      27              0.0000000000
      3451        27  DOPE      C27            19.9723819532       13.0679512340       10.2947325831  MEMB      27              0.0000000000
      3452        27  DOPE      H7R            19.1229471188       12.8064428938       10.9679180443  MEMB      27              0.0000000000
      3453        27  DOPE      H7S            20.7925421220       12.3470546497       10.5043846390  MEMB      27              0.0000000000
      3454        27  DOPE      C28            19.5628512216       13.0029340655        8.8306170589  MEMB      27              0.0000000000
      3455        27  DOPE      H8R            20.4087175519       13.3281025000        8.1909018015  MEMB      27              0.0000000000
      3456        27  DOPE      H8S            18.7312685153       13.7235055544        8.6754728403  MEMB      27              0.0000000000
      3457        27  DOPE      C29            19.1732435476       11.6284731799        8.4325673449  MEMB      27              0.0000000000
      3458        27  DOPE      H9R            19.9955796770       11.0081613731        8.1162986502  MEMB      27              0.0000000000
      3459        27  DOPE      C210           17.9561357404       11.1140684539        8.5130330004  MEMB      27              0.0000000000
      3460        27  DOPE      H10R           17.7496777857       10.1452843712        8.0299006022  MEMB      27              0.0000000000
      3461        27  DOPE      C211           16.7775938836       11.8783013843        9.0279186175  MEMB      27              0.0000000000
      3462        27  DOPE      H11R           17.0530526477       12.6560859366        9.7741737417  MEMB      27              0.0000000000
      3463        27  DOPE      H11S           16.0429391878       11.1905569141        9.4963762760  MEMB      27              0.0000000000
      3464        27  DOPE      C212           16.1721700615       12.5495746726        7.8134995195  MEMB      27              0.0000000000
      3465        27  DOPE      H12R           16.8426374381       13.3362741230        7.3916550349  MEMB      27              0.0000000000
      3466        27  DOPE      H12S           15.2308557694       13.0578183243        8.1222265930  MEMB      27              0.0000000000
      3467        27  DOPE      C213           15.8674908855       11.5258209256        6.7306681011  MEMB      27              0.0000000000
      3468        27  DOPE      H13R           15.6190295513       10.5375414941        7.1725356015  MEMB      27              0.0000000000
      3469        27  DOPE      H13S           16.7498418189       11.3757659877        6.0626575230  MEMB      27              0.0000000000
      3470        27  DOPE      C214           14.7058637287       12.0043599375        5.9148451098  MEMB      27              0.0000000000
      3471        27  DOPE      H14R           13.7779232411       12.0739502392        6.5250796226  MEMB      27              0.0000000000
      3472        27  DOPE      H14S           14.5684158696       11.1917763785        5.1718548926  MEMB      27              0.0000000000
      3473        27  DOPE      C215           15.0277202039       13.3646956463        5.2994637562  MEMB      27              0.0000000000
      3474        27  DOPE      H15R           16.0517356423       13.3204434450        4.8616921600  MEMB      27              0.0000000000
      3475        27  DOPE      H15S           15.0438170214       14.1648681865        6.0742557694  MEMB      27              0.0000000000
      3476        27  DOPE      C216           14.0487223424       13.7373311535        4.2012089084  MEMB      27              0.0000000000
      3477        27  DOPE      H16R           14.5216943449       14.5810269384        3.6474023458  MEMB      27              0.0000000000
      3478        27  DOPE      H16S           13.1034185140       14.1123722409        4.6529067708  MEMB      27              0.0000000000
      3479        27  DOPE      C217           13.8059616673       12.5482757513        3.2612268247  MEMB      27              0.0000000000
      3480        27  DOPE      H17R           14.7028933465       11.9012093478        3.2966304413  MEMB      27              0.0000000000
      3481        27  DOPE      H17S           13.7727439828       12.8606902231        2.2008847488  MEMB      27              0.0000000000
      3482        27  DOPE      C218           12.5995024647       11.6646516144        3.5856067932  MEMB      27              0.0000000000
      3483        27  DOPE      H18R           11.6551225526       12.2067601069        3.4044769488  MEMB      27              0.0000000000
      3484        27  DOPE      H18S           12.5667921867       11.3028453379        4.6310969352  MEMB      27              0.0000000000
      3485        27  DOPE      H18T           12.6613805103       10.7599701465        2.9467828842  MEMB      27              0.0000000000
      3486        27  DOPE      C33            15.1084828480       13.6663939324       13.0491350172  MEMB      27              0.0000000000
      3487        27  DOPE      H3X            14.1611025851       13.4914472581       12.4882799621  MEMB      27              0.0000000000
      3488        27  DOPE      H3Y            15.9534102928       13.4067206170       12.3707714427  MEMB      27              0.0000000000
      3489        27  DOPE      C34            15.1447881091       15.1323987093       13.4770038443  MEMB      27              0.0000000000
      3490        27  DOPE      H4X            14.1042827861       15.4451164602       13.7091718212  MEMB      27              0.0000000000
      3491        27  DOPE      H4Y            15.7253995756       15.2604597812       14.4202658278  MEMB      27              0.0000000000
      3492        27  DOPE      C35            15.7476867580       16.0561468502       12.4226520665  MEMB      27              0.0000000000
      3493        27  DOPE      H5X            16.8397900400       16.1529354994       12.5849301874  MEMB      27              0.0000000000
      3494        27  DOPE      H5Y            15.3163917010       17.0734576221       12.5483921959  MEMB      27              0.0000000000
      3495        27  DOPE      C36            15.5445188552       15.5951951548       10.9778212716  MEMB      27              0.0000000000
      3496        27  DOPE      H6X            14.4603612391       15.5305580424       10.7536093479  MEMB      27              0.0000000000
      3497        27  DOPE      H6Y            15.9973162898       14.6026117880       10.7617213600  MEMB      27              0.0000000000
      3498        27  DOPE      C37            16.2191439786       16.5967984164       10.0610274181  MEMB      27              0.0000000000
      3499        27  DOPE      H7X            16.0165010978       17.6092346924       10.4767669557  MEMB      27              0.0000000000
      3500        27  DOPE      H7Y            17.3093521074       16.4466880256       10.0735634138  MEMB      27              0.0000000000
      3501        27  DOPE      C38            15.7860947623       16.4331282689        8.6231596314  MEMB      27              0.0000000000
      3502        27  DOPE      H8X            14.7350222764       16.0743527491        8.6162758015  MEMB      27              0.0000000000
      3503        27  DOPE      H8Y            16.3516615545       15.5976752891        8.1615733946  MEMB      27              0.0000000000
      3504        27  DOPE      C39            15.9886773128       17.7930427095        7.9895486129  MEMB      27              0.0000000000
      3505        27  DOPE      H9X            15.4374581957       18.6182005290        8.4775541589  MEMB      27              0.0000000000
      3506        27  DOPE      C310           16.8224924722       18.0825966676        7.0007189104  MEMB      27              0.0000000000
      3507        27  DOPE      H10X           16.9217487467       19.1291542704        6.6624020595  MEMB      27              0.0000000000
      3508        27  DOPE      C311           17.6861730737       17.0162792844        6.4001407817  MEMB      27              0.0000000000
      3509        27  DOPE      H11X           17.1988313865       16.0156357809        6.4400344753  MEMB      27              0.0000000000
      3510        27  DOPE      H11Y           17.8276829443       17.2025602430        5.3397923598  MEMB      27              0.0000000000
      3511        27  DOPE      C312           19.0375368342       16.9685984684        7.1355996192  MEMB      27              0.0000000000
      3512        27  DOPE      H12X           18.7979950842       17.0221820857        8.2254713862  MEMB      27              0.0000000000
      3513        27  DOPE      H12Y           19.6391800911       17.8673475947        6.8921439060  MEMB      27              0.0000000000
      3514        27  DOPE      C313           19.8412653132       15.6607906093        6.9554836299  MEMB      27              0.0000000000
      3515        27  DOPE      H13X           20.3904763059       15.4888627806        7.9059264104  MEMB      27              0.0000000000
      3516        27  DOPE      H13Y           19.1087112997       14.8385855605        6.8361508571  MEMB      27              0.0000000000
      3517        27  DOPE      C314           20.8464211913       15.5906018019        5.7888972284  MEMB      27              0.0000000000
      3518        27  DOPE      H14X           21.8238868533       16.0001803111        6.1021856841  MEMB      27              0.0000000000
      3519        27  DOPE      H14Y           20.5043206635       16.2858518969        5.0047023041  MEMB      27              0.0000000000
      3520        27  DOPE      C315           20.9702379809       14.2270522786        5.0619352772  MEMB      27              0.0000000000
      3521        27  DOPE      H15X           21.5238609067       13.4422264060        5.6135330137  MEMB      27              0.0000000000
      3522        27  DOPE      H15Y           21.5796946925       14.4150344016        4.1526323763  MEMB      27              0.0000000000
      3523        27  DOPE      C316           19.6225923612       13.6329044552        4.6219849331  MEMB      27              0.0000000000
      3524        27  DOPE      H16X           19.0975733294       13.1670269986        5.4819910836  MEMB      27              0.0000000000
      3525        27  DOPE      H16Y           19.8302413707       12.8135462608        3.9218308388  MEMB      27              0.0000000000
      3526        27  DOPE      C317           18.7173265416       14.6362868584        3.9055190496  MEMB      27              0.0000000000
      3527        27  DOPE      H17X           17.7348595782       14.1679675375        3.6721160032  MEMB      27              0.0000000000
      3528        27  DOPE      H17Y           18.4918252995       15.4596805104        4.5967905560  MEMB      27              0.0000000000
      3529        27  DOPE      C318           19.3305572709       15.1712169623        2.6082891646  MEMB      27              0.0000000000
      3530        27  DOPE      H18X           20.3663301214       14.8140348651        2.4461316687  MEMB      27              0.0000000000
      3531        27  DOPE      H18Y           19.2875732233       16.2433180306        2.5145715045  MEMB      27              0.0000000000
      3532        27  DOPE      H18Z           18.6949711403       14.8880804132        1.7545234183  MEMB      27              0.0000000000
      3533        28  CHL1      C3             22.9227104847        3.0323807296       17.5055079160  MEMB      28              0.0000000000
      3534        28  CHL1      H3             24.0164318581        3.1356787492       17.7122598222  MEMB      28              0.0000000000
      3535        28  CHL1      O3             22.2302179752        2.9366028398       18.7336560892  MEMB      28              0.0000000000
      3536        28  CHL1      H3'            22.4607703481        2.0573797161       19.0980181915  MEMB      28              0.0000000000
      3537        28  CHL1      C4             22.4077752067        4.2652279253       16.7557480136  MEMB      28              0.0000000000
      3538        28  CHL1      H4A            21.3159672200        4.1523081225       16.5816050388  MEMB      28              0.0000000000
      3539        28  CHL1      H4B            22.5401559604        5.1527611614       17.4214704343  MEMB      28              0.0000000000
      3540        28  CHL1      C5             23.1492175662        4.4142198940       15.4462564029  MEMB      28              0.0000000000
      3541        28  CHL1      C6             23.8439250169        5.5312534648       15.1971517905  MEMB      28              0.0000000000
      3542        28  CHL1      H6             23.8116854634        6.3608097869       15.9223722749  MEMB      28              0.0000000000
      3543        28  CHL1      C7             24.6729489729        5.7386981640       13.9649189273  MEMB      28              0.0000000000
      3544        28  CHL1      H7A            24.4580777477        6.7283914437       13.5138492769  MEMB      28              0.0000000000
      3545        28  CHL1      H7B            25.7431035518        5.7361417851       14.2645011899  MEMB      28              0.0000000000
      3546        28  CHL1      C8             24.4846720511        4.6578399553       12.8691240584  MEMB      28              0.0000000000
      3547        28  CHL1      H8             23.5821257620        4.9398427562       12.2844345827  MEMB      28              0.0000000000
      3548        28  CHL1      C14            25.7253121446        4.5672408446       11.9833609798  MEMB      28              0.0000000000
      3549        28  CHL1      H14            26.5325047568        4.1045120277       12.6091154781  MEMB      28              0.0000000000
      3550        28  CHL1      C15            26.3537356361        5.8541437032       11.4690123340  MEMB      28              0.0000000000
      3551        28  CHL1      H15A           25.5658416129        6.4382236700       10.9733264626  MEMB      28              0.0000000000
      3552        28  CHL1      H15B           26.8392306528        6.4548587746       12.2593571385  MEMB      28              0.0000000000
      3553        28  CHL1      C16            27.3398008811        5.3693986863       10.4082482060  MEMB      28              0.0000000000
      3554        28  CHL1      H16A           27.4861765034        6.1200380971        9.6136401720  MEMB      28              0.0000000000
      3555        28  CHL1      H16B           28.3071247504        5.1837855298       10.9097339325  MEMB      28              0.0000000000
      3556        28  CHL1      C17            26.8942622842        3.9539066128        9.9809553141  MEMB      28              0.0000000000
      3557        28  CHL1      H17            27.6350802295        3.2813727262       10.4914527959  MEMB      28              0.0000000000
      3558        28  CHL1      C13            25.5549203825        3.7033592903       10.7377074775  MEMB      28              0.0000000000
      3559        28  CHL1      C18            24.3698173616        4.2838682619        9.9162390602  MEMB      28              0.0000000000
      3560        28  CHL1      H18A           24.2158818362        5.3602952286       10.0930175317  MEMB      28              0.0000000000
      3561        28  CHL1      H18B           24.4985415563        4.2110168213        8.8356127239  MEMB      28              0.0000000000
      3562        28  CHL1      H18C           23.4255050998        3.7724660797       10.1679286361  MEMB      28              0.0000000000
      3563        28  CHL1      C12            25.3041861883        2.2679824902       11.2450002501  MEMB      28              0.0000000000
      3564        28  CHL1      H12A           25.0255418278        1.6084168199       10.4033791514  MEMB      28              0.0000000000
      3565        28  CHL1      H12B           26.2443092688        1.8776020126       11.6951346834  MEMB      28              0.0000000000
      3566        28  CHL1      C11            24.1887359072        2.1859785322       12.3159363638  MEMB      28              0.0000000000
      3567        28  CHL1      H11A           23.2212335323        2.2826306180       11.7831563184  MEMB      28              0.0000000000
      3568        28  CHL1      H11B           24.2345864923        1.1753394687       12.7767794031  MEMB      28              0.0000000000
      3569        28  CHL1      C9             24.2757463069        3.2603814983       13.4463075402  MEMB      28              0.0000000000
      3570        28  CHL1      H9             25.2273081545        3.0440399430       13.9936864321  MEMB      28              0.0000000000
      3571        28  CHL1      C10            23.1615014058        3.1695488504       14.5270924021  MEMB      28              0.0000000000
      3572        28  CHL1      C19            21.7780833490        3.1335638112       13.8301773775  MEMB      28              0.0000000000
      3573        28  CHL1      H19A           21.6507025357        3.9953949440       13.1435764598  MEMB      28              0.0000000000
      3574        28  CHL1      H19B           21.6601705951        2.2002225815       13.2448028605  MEMB      28              0.0000000000
      3575        28  CHL1      H19C           20.9542621697        3.1534985210       14.5704869300  MEMB      28              0.0000000000
      3576        28  CHL1      C1             23.3817608153        1.8485720804       15.3358917889  MEMB      28              0.0000000000
      3577        28  CHL1      H1A            23.0684088203        0.9842442177       14.7122872658  MEMB      28              0.0000000000
      3578        28  CHL1      H1B            24.4716581534        1.7317722982       15.5400449717  MEMB      28              0.0000000000
      3579        28  CHL1      C2             22.6616239005        1.7676186377       16.6919147239  MEMB      28              0.0000000000
      3580        28  CHL1      H2A            23.0298628093        0.8776008734       17.2507315925  MEMB      28              0.0000000000
      3581        28  CHL1      H2B            21.5673468733        1.6554975325       16.5295556613  MEMB      28              0.0000000000
      3582        28  CHL1      C20            27.0094646457        3.6308334907        8.4711364626  MEMB      28              0.0000000000
      3583        28  CHL1      H20            26.0786056891        3.8736658219        7.9359670203  MEMB      28              0.0000000000
      3584        28  CHL1      C21            27.2074543725        2.1297374850        8.4045076958  MEMB      28              0.0000000000
      3585        28  CHL1      H21A           28.2070479011        1.9185686712        8.8306347375  MEMB      28              0.0000000000
      3586        28  CHL1      H21B           27.1544830374        1.7795542726        7.3536779265  MEMB      28              0.0000000000
      3587        28  CHL1      H21C           26.4663489647        1.5603548656        8.9892342700  MEMB      28              0.0000000000
      3588        28  CHL1      C22            28.1328207128        4.3572557635        7.6605132502  MEMB      28              0.0000000000
      3589        28  CHL1      H22A           27.9285255975        5.4441884990        7.6185753008  MEMB      28              0.0000000000
      3590        28  CHL1      H22B           29.0846683741        4.2420584341        8.2191965685  MEMB      28              0.0000000000
      3591        28  CHL1      C23            28.3857390774        3.9141132028        6.1816848361  MEMB      28              0.0000000000
      3592        28  CHL1      H23A           29.2056142951        4.5767464951        5.8159972339  MEMB      28              0.0000000000
      3593        28  CHL1      H23B           28.7493919445        2.8668040475        6.1573734507  MEMB      28              0.0000000000
      3594        28  CHL1      C24            27.2227973773        4.0236112477        5.1802168170  MEMB      28              0.0000000000
      3595        28  CHL1      H24A           26.4145384759        3.3336085187        5.5119915334  MEMB      28              0.0000000000
      3596        28  CHL1      H24B           26.8461980701        5.0615501015        5.2074528628  MEMB      28              0.0000000000
      3597        28  CHL1      C25            27.5049473147        3.7206535203        3.6819972089  MEMB      28              0.0000000000
      3598        28  CHL1      H25            27.7675457739        2.6422634127        3.5865125549  MEMB      28              0.0000000000
      3599        28  CHL1      C26            26.2176672628        3.9618072220        2.8699744429  MEMB      28              0.0000000000
      3600        28  CHL1      H26A           25.3425336125        3.5232161444        3.3910921761  MEMB      28              0.0000000000
      3601        28  CHL1      H26B           26.0387171350        5.0495039541        2.7503944346  MEMB      28              0.0000000000
      3602        28  CHL1      H26C           26.2820212613        3.5082987230        1.8596855944  MEMB      28              0.0000000000
      3603        28  CHL1      C27            28.6606300712        4.5376397039        3.0814366189  MEMB      28              0.0000000000
      3604        28  CHL1      H27A           28.5169201053        5.6194693470        3.2875651209  MEMB      28              0.0000000000
      3605        28  CHL1      H27B           29.6345103154        4.2217416992        3.5089941629  MEMB      28              0.0000000000
      3606        28  CHL1      H27C           28.7047753598        4.3980868776        1.9792619727  MEMB      28              0.0000000000
      3607        29  CHL1      C3             22.1245586000       -5.4521045902       17.4673633841  MEMB      29              0.0000000000
      3608        29  CHL1      H3             22.9647738579       -4.7266350059       17.3731239085  MEMB      29              0.0000000000
      3609        29  CHL1      O3             21.7840594639       -5.5952093064       18.8327986134  MEMB      29              0.0000000000
      3610        29  CHL1      H3'            22.5671331281       -5.9974298113       19.2400358270  MEMB      29              0.0000000000
      3611        29  CHL1      C4             20.9046615480       -4.9352283162       16.6840289697  MEMB      29              0.0000000000
      3612        29  CHL1      H4A            20.0354808291       -5.5844926917       16.9278495819  MEMB      29              0.0000000000
      3613        29  CHL1      H4B            20.6651808905       -3.9249512784       17.0878567893  MEMB      29              0.0000000000
      3614        29  CHL1      C5             21.1215103148       -4.9151153018       15.1839271508  MEMB      29              0.0000000000
      3615        29  CHL1      C6             20.9060037172       -3.8047856355       14.4557003040  MEMB      29              0.0000000000
      3616        29  CHL1      H6             20.5444533179       -2.8961056747       14.9587980373  MEMB      29              0.0000000000
      3617        29  CHL1      C7             21.0547908621       -3.7413650515       12.9584308712  MEMB      29              0.0000000000
      3618        29  CHL1      H7A            20.1668470765       -3.2628979013       12.4908336815  MEMB      29              0.0000000000
      3619        29  CHL1      H7B            21.9375698010       -3.1151464236       12.7052508724  MEMB      29              0.0000000000
      3620        29  CHL1      C8             21.2472935853       -5.1470095926       12.3168014038  MEMB      29              0.0000000000
      3621        29  CHL1      H8             20.2711151527       -5.6565639862       12.3112937199  MEMB      29              0.0000000000
      3622        29  CHL1      C14            21.7805564462       -5.0228166972       10.8955835351  MEMB      29              0.0000000000
      3623        29  CHL1      H14            22.7963009395       -4.6238460971       11.0580696037  MEMB      29              0.0000000000
      3624        29  CHL1      C15            21.0964854706       -4.0498318849        9.9094483258  MEMB      29              0.0000000000
      3625        29  CHL1      H15A           20.0014618659       -4.0546726447       10.0548036884  MEMB      29              0.0000000000
      3626        29  CHL1      H15B           21.4719448287       -3.0181803042       10.0644801442  MEMB      29              0.0000000000
      3627        29  CHL1      C16            21.4828321547       -4.5787081783        8.5185724202  MEMB      29              0.0000000000
      3628        29  CHL1      H16A           20.5777353846       -5.0083689025        8.0366832594  MEMB      29              0.0000000000
      3629        29  CHL1      H16B           21.8909520815       -3.7840602168        7.8639514240  MEMB      29              0.0000000000
      3630        29  CHL1      C17            22.5316443107       -5.7041124932        8.7746641893  MEMB      29              0.0000000000
      3631        29  CHL1      H17            23.5017731958       -5.1725501011        8.9293658438  MEMB      29              0.0000000000
      3632        29  CHL1      C13            22.1184856925       -6.3008060190       10.1499791004  MEMB      29              0.0000000000
      3633        29  CHL1      C18            20.8395242618       -7.1556797972        9.9951832691  MEMB      29              0.0000000000
      3634        29  CHL1      H18A           20.0990896112       -6.6809279040        9.3239057450  MEMB      29              0.0000000000
      3635        29  CHL1      H18B           21.0895288896       -8.1532075020        9.5902499638  MEMB      29              0.0000000000
      3636        29  CHL1      H18C           20.3395575360       -7.3207684663       10.9693489424  MEMB      29              0.0000000000
      3637        29  CHL1      C12            23.2003020194       -7.0050032297       10.9989596569  MEMB      29              0.0000000000
      3638        29  CHL1      H12A           23.5518969617       -7.9507161116       10.5569238632  MEMB      29              0.0000000000
      3639        29  CHL1      H12B           24.0813763559       -6.3302786950       11.0945681937  MEMB      29              0.0000000000
      3640        29  CHL1      C11            22.6638109066       -7.2964019623       12.4129290954  MEMB      29              0.0000000000
      3641        29  CHL1      H11A           21.8249647059       -8.0165843675       12.3295425769  MEMB      29              0.0000000000
      3642        29  CHL1      H11B           23.4668940529       -7.7998810196       12.9879173837  MEMB      29              0.0000000000
      3643        29  CHL1      C9             22.2050107380       -6.0034673284       13.1493967281  MEMB      29              0.0000000000
      3644        29  CHL1      H9             23.1340421398       -5.3892807487       13.2514637793  MEMB      29              0.0000000000
      3645        29  CHL1      C10            21.6858579648       -6.2245067717       14.5891085952  MEMB      29              0.0000000000
      3646        29  CHL1      C19            20.5311139635       -7.2601848939       14.5710280358  MEMB      29              0.0000000000
      3647        29  CHL1      H19A           20.8867739142       -8.2499075898       14.2244632920  MEMB      29              0.0000000000
      3648        29  CHL1      H19B           20.0917694259       -7.4078651704       15.5782796845  MEMB      29              0.0000000000
      3649        29  CHL1      H19C           19.7088316524       -6.9345601236       13.9026367316  MEMB      29              0.0000000000
      3650        29  CHL1      C1             22.8661933457       -6.7588771518       15.4507221632  MEMB      29              0.0000000000
      3651        29  CHL1      H1A            23.1224595621       -7.7852751202       15.1100638231  MEMB      29              0.0000000000
      3652        29  CHL1      H1B            23.7574957690       -6.1095799108       15.2925225475  MEMB      29              0.0000000000
      3653        29  CHL1      C2             22.5645191918       -6.8198509088       16.9497812361  MEMB      29              0.0000000000
      3654        29  CHL1      H2A            23.4752282424       -7.1557834801       17.4846665458  MEMB      29              0.0000000000
      3655        29  CHL1      H2B            21.7516219232       -7.5574364214       17.1337539038  MEMB      29              0.0000000000
      3656        29  CHL1      C20            22.7329827804       -6.6837658306        7.6127781313  MEMB      29              0.0000000000
      3657        29  CHL1      H20            21.9628367416       -7.4804187103        7.7099981111  MEMB      29              0.0000000000
      3658        29  CHL1      C21            24.1340325470       -7.3280107238        7.7412939363  MEMB      29              0.0000000000
      3659        29  CHL1      H21A           24.2802698828       -8.0828361743        6.9406637095  MEMB      29              0.0000000000
      3660        29  CHL1      H21B           24.2647412217       -7.8449351785        8.7041115946  MEMB      29              0.0000000000
      3661        29  CHL1      H21C           24.9329270426       -6.5624387604        7.6734499505  MEMB      29              0.0000000000
      3662        29  CHL1      C22            22.5217621369       -6.1251781560        6.1736557098  MEMB      29              0.0000000000
      3663        29  CHL1      H22A           22.4252654160       -7.0133282789        5.5064764820  MEMB      29              0.0000000000
      3664        29  CHL1      H22B           21.5596551339       -5.5785967468        6.1022425162  MEMB      29              0.0000000000
      3665        29  CHL1      C23            23.6633154872       -5.2685459787        5.6026735683  MEMB      29              0.0000000000
      3666        29  CHL1      H23A           23.7978926221       -4.3476267234        6.2080523053  MEMB      29              0.0000000000
      3667        29  CHL1      H23B           24.6122231723       -5.8441428060        5.6729448983  MEMB      29              0.0000000000
      3668        29  CHL1      C24            23.4987994150       -4.9204568044        4.1090951723  MEMB      29              0.0000000000
      3669        29  CHL1      H24A           24.3922881631       -4.3312920698        3.8089813791  MEMB      29              0.0000000000
      3670        29  CHL1      H24B           23.4912206340       -5.8590071504        3.5104280787  MEMB      29              0.0000000000
      3671        29  CHL1      C25            22.2703571698       -4.0770326406        3.7140717371  MEMB      29              0.0000000000
      3672        29  CHL1      H25            21.3559222350       -4.7052298897        3.8233165852  MEMB      29              0.0000000000
      3673        29  CHL1      C26            22.1296958829       -2.8511172592        4.6215841747  MEMB      29              0.0000000000
      3674        29  CHL1      H26A           21.7942849116       -3.1473869434        5.6355263820  MEMB      29              0.0000000000
      3675        29  CHL1      H26B           23.1192702841       -2.3695332589        4.7316750850  MEMB      29              0.0000000000
      3676        29  CHL1      H26C           21.4082252024       -2.1189886372        4.2025180199  MEMB      29              0.0000000000
      3677        29  CHL1      C27            22.3773054171       -3.6483631680        2.2397615387  MEMB      29              0.0000000000
      3678        29  CHL1      H27A           21.4815308920       -3.0732203565        1.9264903064  MEMB      29              0.0000000000
      3679        29  CHL1      H27B           23.2746986554       -3.0152768401        2.0726743843  MEMB      29              0.0000000000
      3680        29  CHL1      H27C           22.4615345537       -4.5439232218        1.5920287699  MEMB      29              0.0000000000
      3681        30  23SM      N              -4.4229764636      -24.1371848206       26.9653221431  MEMB      30              0.0000000000
      3682        30  23SM      C15            -5.1106984128      -23.8548886931       28.2789095558  MEMB      30              0.0000000000
      3683        30  23SM      H15A           -5.4954135985      -24.7626426385       28.7359109236  MEMB      30              0.0000000000
      3684        30  23SM      H15B           -5.9520124327      -23.1751108196       28.1552851780  MEMB      30              0.0000000000
      3685        30  23SM      H15C           -4.4460870161      -23.4049760482       29.0076161005  MEMB      30              0.0000000000
      3686        30  23SM      C14            -3.3834053512      -25.1838264367       27.1780089922  MEMB      30              0.0000000000
      3687        30  23SM      H14A           -2.8232860250      -25.3629876886       26.2585127571  MEMB      30              0.0000000000
      3688        30  23SM      H14B           -3.8386665113      -26.1226999442       27.4755813905  MEMB      30              0.0000000000
      3689        30  23SM      H14C           -2.6990130043      -24.9010408473       27.9695885438  MEMB      30              0.0000000000
      3690        30  23SM      C13            -5.4486668830      -24.6595805588       25.9957283976  MEMB      30              0.0000000000
      3691        30  23SM      H13A           -6.0968475025      -23.8348108368       25.6877851331  MEMB      30              0.0000000000
      3692        30  23SM      H13B           -6.0451994511      -25.4488586977       26.4259917891  MEMB      30              0.0000000000
      3693        30  23SM      H13C           -5.0111759465      -25.0573025233       25.0799757270  MEMB      30              0.0000000000
      3694        30  23SM      C12            -3.7502775257      -22.9076395616       26.3556157543  MEMB      30              0.0000000000
      3695        30  23SM      H12A           -3.3747158365      -23.1487731896       25.3586367675  MEMB      30              0.0000000000
      3696        30  23SM      H12B           -2.8718836257      -22.6290693062       26.9211715984  MEMB      30              0.0000000000
      3697        30  23SM      C11            -4.6215183775      -21.6571394126       26.1868292796  MEMB      30              0.0000000000
      3698        30  23SM      H11A           -3.9589884649      -20.8113846641       25.8752826646  MEMB      30              0.0000000000
      3699        30  23SM      H11B           -5.0726180438      -21.4139420407       27.1795526938  MEMB      30              0.0000000000
      3700        30  23SM      P              -6.7272233393      -20.7586358366       25.0589070950  MEMB      30              0.0000000000
      3701        30  23SM      O13            -7.5227463089      -20.6936816545       26.2934584412  MEMB      30              0.0000000000
      3702        30  23SM      O14            -6.1322286423      -19.5010570464       24.5961533897  MEMB      30              0.0000000000
      3703        30  23SM      O11            -7.6623381940      -21.3131379794       23.9332495880  MEMB      30              0.0000000000
      3704        30  23SM      O12            -5.6125614526      -21.8982282627       25.1880463406  MEMB      30              0.0000000000
      3705        30  23SM      C1S            -7.3053272142      -22.3529064837       23.0348476222  MEMB      30              0.0000000000
      3706        30  23SM      H1S            -7.7366199440      -23.3100001568       23.4004325206  MEMB      30              0.0000000000
      3707        30  23SM      H1T            -6.2033203384      -22.4926559937       22.9295655946  MEMB      30              0.0000000000
      3708        30  23SM      NF             -7.7579667159      -23.1475998135       20.7400429579  MEMB      30              0.0000000000
      3709        30  23SM      HNF            -7.2969562248      -22.9510996911       19.8820107076  MEMB      30              0.0000000000
      3710        30  23SM      C2S            -7.8941622493      -22.0301040552       21.6402755352  MEMB      30              0.0000000000
      3711        30  23SM      H2S            -8.9818548916      -21.8170390906       21.7625522933  MEMB      30              0.0000000000
      3712        30  23SM      C3S            -7.2230717753      -20.7620911813       21.0364599537  MEMB      30              0.0000000000
      3713        30  23SM      H3S            -6.1181662069      -20.9015809499       21.0402184830  MEMB      30              0.0000000000
      3714        30  23SM      O3             -7.4746421603      -19.5604936363       21.7466694978  MEMB      30              0.0000000000
      3715        30  23SM      HO3            -7.6461331132      -19.8280890598       22.6635465977  MEMB      30              0.0000000000
      3716        30  23SM      C4S            -7.6891114251      -20.6764458134       19.5999100190  MEMB      30              0.0000000000
      3717        30  23SM      H4S            -6.9480401910      -21.0716773894       18.8983600909  MEMB      30              0.0000000000
      3718        30  23SM      C5S            -8.8456896382      -20.1721401754       19.1308095615  MEMB      30              0.0000000000
      3719        30  23SM      H5S            -9.5201656483      -19.6718773172       19.8527935834  MEMB      30              0.0000000000
      3720        30  23SM      C6S            -9.2713090363      -20.1397608367       17.6810902361  MEMB      30              0.0000000000
      3721        30  23SM      H6S            -9.3978483187      -19.0871913365       17.3560570620  MEMB      30              0.0000000000
      3722        30  23SM      H6T           -10.2798970765      -20.6167343459       17.6456390884  MEMB      30              0.0000000000
      3723        30  23SM      C7S            -8.4303248818      -20.8665506327       16.5910421148  MEMB      30              0.0000000000
      3724        30  23SM      H7S            -8.4424388168      -21.9645765815       16.7782536774  MEMB      30              0.0000000000
      3725        30  23SM      H7T            -7.3738529387      -20.5287583121       16.6389210250  MEMB      30              0.0000000000
      3726        30  23SM      C8S            -8.9757146049      -20.5883869742       15.1685972040  MEMB      30              0.0000000000
      3727        30  23SM      H8S            -8.9215425715      -19.4931807051       14.9922389219  MEMB      30              0.0000000000
      3728        30  23SM      H8T           -10.0496039950      -20.8885616716       15.1505649778  MEMB      30              0.0000000000
      3729        30  23SM      C9S            -8.2618052804      -21.2931038363       13.9869073294  MEMB      30              0.0000000000
      3730        30  23SM      H9S            -8.3830893980      -22.3871420122       14.1171751921  MEMB      30              0.0000000000
      3731        30  23SM      H9T            -7.1743779965      -21.0868192255       14.0337373046  MEMB      30              0.0000000000
      3732        30  23SM      C10S           -8.8026113167      -20.8472778223       12.5934404856  MEMB      30              0.0000000000
      3733        30  23SM      H10S           -8.3089118636      -19.9046824360       12.2795468423  MEMB      30              0.0000000000
      3734        30  23SM      H10T           -9.8852194223      -20.6749948763       12.7452222243  MEMB      30              0.0000000000
      3735        30  23SM      C11S           -8.8006049369      -21.9057270013       11.4701007765  MEMB      30              0.0000000000
      3736        30  23SM      H11S           -9.7009379734      -22.4955608136       11.6690181229  MEMB      30              0.0000000000
      3737        30  23SM      H11T           -7.9449915786      -22.5888413928       11.5821435514  MEMB      30              0.0000000000
      3738        30  23SM      C12S           -9.0018346367      -21.5326171983        9.9839795941  MEMB      30              0.0000000000
      3739        30  23SM      H12S           -8.3787848450      -20.6613326240        9.6976757748  MEMB      30              0.0000000000
      3740        30  23SM      H12T          -10.0583704484      -21.2610643471        9.8257604223  MEMB      30              0.0000000000
      3741        30  23SM      C13S           -8.7129637021      -22.7690712794        9.0951902141  MEMB      30              0.0000000000
      3742        30  23SM      H13S           -9.1836133744      -23.6638546552        9.5562122776  MEMB      30              0.0000000000
      3743        30  23SM      H13T           -7.6201592373      -22.9366842640        9.0901882712  MEMB      30              0.0000000000
      3744        30  23SM      C14S           -9.1476075390      -22.6841256922        7.6260788134  MEMB      30              0.0000000000
      3745        30  23SM      H14S           -8.7762155410      -21.7155740803        7.2343955151  MEMB      30              0.0000000000
      3746        30  23SM      H14T          -10.2541602474      -22.6632274238        7.5524673279  MEMB      30              0.0000000000
      3747        30  23SM      C15S           -8.5849275573      -23.8189416137        6.7290704511  MEMB      30              0.0000000000
      3748        30  23SM      H15S           -9.2009728852      -24.7335774607        6.8614697000  MEMB      30              0.0000000000
      3749        30  23SM      H15T           -7.5474135367      -24.0711116954        7.0369026264  MEMB      30              0.0000000000
      3750        30  23SM      C16S           -8.5698356766      -23.3746113552        5.2553929648  MEMB      30              0.0000000000
      3751        30  23SM      H16S           -7.8091267618      -22.5688782502        5.1446981127  MEMB      30              0.0000000000
      3752        30  23SM      H16T           -9.5710715498      -22.9389767094        5.0528314310  MEMB      30              0.0000000000
      3753        30  23SM      C17S           -8.2823976787      -24.4021300864        4.1527961829  MEMB      30              0.0000000000
      3754        30  23SM      H17S           -8.9826962940      -25.2620141766        4.2441392434  MEMB      30              0.0000000000
      3755        30  23SM      H17T           -7.2424655651      -24.7810606281        4.2678149561  MEMB      30              0.0000000000
      3756        30  23SM      C18S           -8.4316254588      -23.7714321341        2.7579051458  MEMB      30              0.0000000000
      3757        30  23SM      H18S           -8.0922467587      -24.4573840433        1.9542687094  MEMB      30              0.0000000000
      3758        30  23SM      H18T           -7.8410185983      -22.8319038361        2.6900916138  MEMB      30              0.0000000000
      3759        30  23SM      H18U           -9.4910304021      -23.5044729312        2.5632446912  MEMB      30              0.0000000000
      3760        30  23SM      C1F            -8.3935948468      -24.2983360694       20.8810094516  MEMB      30              0.0000000000
      3761        30  23SM      OF             -9.1046645395      -24.5218247124       21.8534946787  MEMB      30              0.0000000000
      3762        30  23SM      C2F            -8.2817455079      -25.2309097984       19.7167500773  MEMB      30              0.0000000000
      3763        30  23SM      H2F            -8.2709669408      -24.6438997023       18.7709987928  MEMB      30              0.0000000000
      3764        30  23SM      H2G            -9.1975888420      -25.8621529039       19.7101044402  MEMB      30              0.0000000000
      3765        30  23SM      C3F            -7.0666838311      -26.1859035412       19.7614546119  MEMB      30              0.0000000000
      3766        30  23SM      H3F            -6.9777226699      -26.6430749686       18.7471459746  MEMB      30              0.0000000000
      3767        30  23SM      H3G            -7.3090536099      -27.0099268274       20.4706673117  MEMB      30              0.0000000000
      3768        30  23SM      C4F            -5.6918024789      -25.6036799828       20.1541259268  MEMB      30              0.0000000000
      3769        30  23SM      H4F            -4.9764861938      -26.4525943638       20.0605690777  MEMB      30              0.0000000000
      3770        30  23SM      H4G            -5.7057024801      -25.2938480722       21.2233779839  MEMB      30              0.0000000000
      3771        30  23SM      C5F            -5.1709916035      -24.4624879067       19.2661299382  MEMB      30              0.0000000000
      3772        30  23SM      H5F            -5.6050554340      -23.4948735004       19.5849174553  MEMB      30              0.0000000000
      3773        30  23SM      H5G            -5.4879533745      -24.6515546454       18.2145491747  MEMB      30              0.0000000000
      3774        30  23SM      C6F            -3.6471723773      -24.3096981343       19.3239730012  MEMB      30              0.0000000000
      3775        30  23SM      H6F            -3.1814845961      -25.2856664810       19.0626048407  MEMB      30              0.0000000000
      3776        30  23SM      H6G            -3.3451990421      -24.0579937286       20.3663212041  MEMB      30              0.0000000000
      3777        30  23SM      C7F            -3.1120746343      -23.2351744512       18.3663523698  MEMB      30              0.0000000000
      3778        30  23SM      H7F            -2.0526039624      -23.0582625911       18.6275481182  MEMB      30              0.0000000000
      3779        30  23SM      H7G            -3.6451027854      -22.2712742018       18.5315868974  MEMB      30              0.0000000000
      3780        30  23SM      C8F            -3.2159744338      -23.6355692964       16.8803442880  MEMB      30              0.0000000000
      3781        30  23SM      H8F            -4.2739137678      -23.4841333051       16.5669987570  MEMB      30              0.0000000000
      3782        30  23SM      H8G            -2.9745004176      -24.7150526669       16.7578974479  MEMB      30              0.0000000000
      3783        30  23SM      C9F            -2.2887642225      -22.8365213834       15.9532315651  MEMB      30              0.0000000000
      3784        30  23SM      H9F            -1.2421361524      -23.1572451111       16.1052876404  MEMB      30              0.0000000000
      3785        30  23SM      H9G            -2.3538050649      -21.7555080208       16.1980728843  MEMB      30              0.0000000000
      3786        30  23SM      C10F           -2.5277713539      -23.0567047101       14.4578934885  MEMB      30              0.0000000000
      3787        30  23SM      H10F           -2.3080005528      -24.1134980326       14.2020927177  MEMB      30              0.0000000000
      3788        30  23SM      H10G           -1.8224446807      -22.4004322439       13.8942387397  MEMB      30              0.0000000000
      3789        30  23SM      C11F           -3.9397633752      -22.7931651304       13.9654844802  MEMB      30              0.0000000000
      3790        30  23SM      H11F           -4.3054049908      -21.8124175943       14.3436452996  MEMB      30              0.0000000000
      3791        30  23SM      H11G           -4.6446775876      -23.5691131338       14.3397062928  MEMB      30              0.0000000000
      3792        30  23SM      C12F           -3.9576554554      -22.7866247148       12.4385169444  MEMB      30              0.0000000000
      3793        30  23SM      H12F           -3.6640524623      -23.7796825943       12.0349556190  MEMB      30              0.0000000000
      3794        30  23SM      H12G           -3.2201554438      -22.0417667302       12.0780674258  MEMB      30              0.0000000000
      3795        30  23SM      C13F           -5.3416006851      -22.3942579837       11.9720525163  MEMB      30              0.0000000000
      3796        30  23SM      H13F           -5.5893338692      -21.4066491544       12.4104145868  MEMB      30              0.0000000000
      3797        30  23SM      H13G           -6.0806103064      -23.1056708126       12.4050494153  MEMB      30              0.0000000000
      3798        30  23SM      C14F           -5.5615770563      -22.2912473689       10.4645701519  MEMB      30              0.0000000000
      3799        30  23SM      H14F           -6.4962770667      -21.6979095830       10.4005424283  MEMB      30              0.0000000000
      3800        30  23SM      H14G           -5.7391329972      -23.2923479749       10.0191348027  MEMB      30              0.0000000000
      3801        30  23SM      C15F           -4.5779958191      -21.4978358563        9.6085248856  MEMB      30              0.0000000000
      3802        30  23SM      H15F           -3.7800362157      -22.1648670042        9.2236270002  MEMB      30              0.0000000000
      3803        30  23SM      H15G           -4.1042122534      -20.6953138373       10.2203086981  MEMB      30              0.0000000000
      3804        30  23SM      C16F           -5.3175193965      -20.8129585107        8.4452982530  MEMB      30              0.0000000000
      3805        30  23SM      H16F           -4.7290775897      -19.9152706047        8.1748167430  MEMB      30              0.0000000000
      3806        30  23SM      H16G           -6.3248247823      -20.4601683935        8.7565782475  MEMB      30              0.0000000000
      3807        30  23SM      C17F           -5.4397040401      -21.6401200028        7.1684292514  MEMB      30              0.0000000000
      3808        30  23SM      H17F           -6.3087121503      -22.3272771510        7.2329798497  MEMB      30              0.0000000000
      3809        30  23SM      H17G           -4.5285360030      -22.2623820119        7.0409861702  MEMB      30              0.0000000000
      3810        30  23SM      C18F           -5.5964802666      -20.7286889501        5.9475905618  MEMB      30              0.0000000000
      3811        30  23SM      H18F           -5.0507196352      -19.7719187231        6.0915682334  MEMB      30              0.0000000000
      3812        30  23SM      H18G           -6.6703266000      -20.4874534503        5.8382810451  MEMB      30              0.0000000000
      3813        30  23SM      C19F           -5.1005007943      -21.3823235672        4.6648394812  MEMB      30              0.0000000000
      3814        30  23SM      H19F           -5.4554514883      -22.4387798071        4.6550004971  MEMB      30              0.0000000000
      3815        30  23SM      H19G           -3.9877135320      -21.3941476725        4.6498781532  MEMB      30              0.0000000000
      3816        30  23SM      C20F           -5.6341802887      -20.6994813322        3.4043899304  MEMB      30              0.0000000000
      3817        30  23SM      H20F           -6.7467470752      -20.6629121417        3.4238560970  MEMB      30              0.0000000000
      3818        30  23SM      H20G           -5.3426914354      -21.3707121785        2.5708236074  MEMB      30              0.0000000000
      3819        30  23SM      C21F           -5.0930054555      -19.2823409023        3.1666873307  MEMB      30              0.0000000000
      3820        30  23SM      H21F           -3.9903312007      -19.2640346877        3.3128580641  MEMB      30              0.0000000000
      3821        30  23SM      H21G           -5.5458889197      -18.5821973348        3.9060346097  MEMB      30              0.0000000000
      3822        30  23SM      C22F           -5.4084109209      -18.7900142283        1.7508922674  MEMB      30              0.0000000000
      3823        30  23SM      H22F           -5.0417716536      -17.7466377694        1.6359102116  MEMB      30              0.0000000000
      3824        30  23SM      H22G           -6.5155424525      -18.7795367563        1.6248610390  MEMB      30              0.0000000000
      3825        30  23SM      C23F           -4.7751524144      -19.6399605382        0.6517913923  MEMB      30              0.0000000000
      3826        30  23SM      H23F           -5.1364887685      -19.3436632493       -0.3446969284  MEMB      30              0.0000000000
      3827        30  23SM      H23G           -5.0402846209      -20.7098460333        0.7429046327  MEMB      30              0.0000000000
      3828        30  23SM      H23H           -3.6683339104      -19.5448183168        0.6744046510  MEMB      30              0.0000000000
      3829        31  23SM      N              15.8986062590      -17.4937891529       28.1001936520  MEMB      31              0.0000000000
      3830        31  23SM      C15            14.4386761397      -17.8306368267       28.1126042288  MEMB      31              0.0000000000
      3831        31  23SM      H15A           13.9208293784      -17.3796585716       28.9445182358  MEMB      31              0.0000000000
      3832        31  23SM      H15B           14.3150009145      -18.9062372371       28.1667489035  MEMB      31              0.0000000000
      3833        31  23SM      H15C           14.0007844085      -17.5214838593       27.1635141083  MEMB      31              0.0000000000
      3834        31  23SM      C14            16.1082426584      -16.0115203736       28.2069460972  MEMB      31              0.0000000000
      3835        31  23SM      H14A           15.6302690207      -15.4905919594       27.3825915863  MEMB      31              0.0000000000
      3836        31  23SM      H14B           17.1632090108      -15.7500486218       28.2702061437  MEMB      31              0.0000000000
      3837        31  23SM      H14C           15.6855132344      -15.6114574684       29.1303369447  MEMB      31              0.0000000000
      3838        31  23SM      C13            16.5219234872      -18.1448116531       29.2944257284  MEMB      31              0.0000000000
      3839        31  23SM      H13A           16.0075736209      -17.7907199837       30.1871254795  MEMB      31              0.0000000000
      3840        31  23SM      H13B           17.5491596437      -17.8160288697       29.4324970101  MEMB      31              0.0000000000
      3841        31  23SM      H13C           16.5137934559      -19.2209878949       29.2631021019  MEMB      31              0.0000000000
      3842        31  23SM      C12            16.4964197099      -18.0639481204       26.8247769290  MEMB      31              0.0000000000
      3843        31  23SM      H12A           16.1494507076      -19.0912214424       26.7084507469  MEMB      31              0.0000000000
      3844        31  23SM      H12B           17.5821776796      -18.0905065079       26.9039256585  MEMB      31              0.0000000000
      3845        31  23SM      C11            16.1215674050      -17.3625769422       25.5006185014  MEMB      31              0.0000000000
      3846        31  23SM      H11A           16.6843821593      -17.9017578087       24.7016641830  MEMB      31              0.0000000000
      3847        31  23SM      H11B           16.5085094578      -16.3212314728       25.5316990046  MEMB      31              0.0000000000
      3848        31  23SM      P              14.0312272017      -18.4716859572       24.3533323355  MEMB      31              0.0000000000
      3849        31  23SM      O13            14.1502694555      -19.7375298146       25.1035560265  MEMB      31              0.0000000000
      3850        31  23SM      O14            12.6680728882      -18.0657405847       23.9742546753  MEMB      31              0.0000000000
      3851        31  23SM      O11            14.9368759324      -18.4890424717       23.0440679395  MEMB      31              0.0000000000
      3852        31  23SM      O12            14.7134139961      -17.3329164293       25.2486805302  MEMB      31              0.0000000000
      3853        31  23SM      C1S            15.3715399102      -17.2559227765       22.4476165494  MEMB      31              0.0000000000
      3854        31  23SM      H1S            16.4525670705      -17.1070929090       22.6565157503  MEMB      31              0.0000000000
      3855        31  23SM      H1T            14.8214502471      -16.3620462330       22.8360796836  MEMB      31              0.0000000000
      3856        31  23SM      NF             13.7717542435      -17.2789007864       20.6161737843  MEMB      31              0.0000000000
      3857        31  23SM      HNF            13.2825815465      -18.1457545707       20.6736804931  MEMB      31              0.0000000000
      3858        31  23SM      C2S            15.1925986185      -17.2475388988       20.9091917977  MEMB      31              0.0000000000
      3859        31  23SM      H2S            15.6205044783      -16.2975168969       20.5104001667  MEMB      31              0.0000000000
      3860        31  23SM      C3S            15.9677590855      -18.4293697189       20.2576235824  MEMB      31              0.0000000000
      3861        31  23SM      H3S            15.6496485136      -19.4073533506       20.6666112198  MEMB      31              0.0000000000
      3862        31  23SM      O3             17.3948625884      -18.3776313842       20.4248468912  MEMB      31              0.0000000000
      3863        31  23SM      HO3            17.5886257904      -17.6083684699       20.9612231052  MEMB      31              0.0000000000
      3864        31  23SM      C4S            15.7053685191      -18.3457435101       18.7833205528  MEMB      31              0.0000000000
      3865        31  23SM      H4S            16.2167050751      -17.5121701875       18.2846342013  MEMB      31              0.0000000000
      3866        31  23SM      C5S            14.9948261848      -19.2081786492       18.0352851377  MEMB      31              0.0000000000
      3867        31  23SM      H5S            14.5399321183      -20.0965678405       18.5068025544  MEMB      31              0.0000000000
      3868        31  23SM      C6S            14.7632076730      -19.0304550311       16.5566749967  MEMB      31              0.0000000000
      3869        31  23SM      H6S            14.8029595874      -17.9468120133       16.3036691606  MEMB      31              0.0000000000
      3870        31  23SM      H6T            13.7398528077      -19.3958284693       16.3375612620  MEMB      31              0.0000000000
      3871        31  23SM      C7S            15.6980434835      -19.7313169140       15.5714976636  MEMB      31              0.0000000000
      3872        31  23SM      H7S            15.7182827789      -20.8165588044       15.8207579031  MEMB      31              0.0000000000
      3873        31  23SM      H7T            16.7152766378      -19.3162837000       15.7218848670  MEMB      31              0.0000000000
      3874        31  23SM      C8S            15.3470738787      -19.5871964262       14.0729342613  MEMB      31              0.0000000000
      3875        31  23SM      H8S            15.5997919186      -18.5630230542       13.7176706196  MEMB      31              0.0000000000
      3876        31  23SM      H8T            14.2676759797      -19.7527425622       13.8749533648  MEMB      31              0.0000000000
      3877        31  23SM      C9S            16.2027839524      -20.6159965589       13.3261737063  MEMB      31              0.0000000000
      3878        31  23SM      H9S            16.0053553295      -21.6361911628       13.7143533690  MEMB      31              0.0000000000
      3879        31  23SM      H9T            17.2318211607      -20.3529794032       13.5879830727  MEMB      31              0.0000000000
      3880        31  23SM      C10S           16.2421210587      -20.5907696459       11.8080350405  MEMB      31              0.0000000000
      3881        31  23SM      H10S           17.3156348967      -20.6229192084       11.4850644481  MEMB      31              0.0000000000
      3882        31  23SM      H10T           15.8092803777      -19.6353046186       11.4408661923  MEMB      31              0.0000000000
      3883        31  23SM      C11S           15.5609683212      -21.8125782494       11.1963947961  MEMB      31              0.0000000000
      3884        31  23SM      H11S           14.8251679825      -22.2259965512       11.9144413042  MEMB      31              0.0000000000
      3885        31  23SM      H11T           16.3351026851      -22.5956210879       11.0274483467  MEMB      31              0.0000000000
      3886        31  23SM      C12S           14.8546704804      -21.4586548204        9.8962385341  MEMB      31              0.0000000000
      3887        31  23SM      H12S           14.1072390414      -20.6579978932       10.1065727836  MEMB      31              0.0000000000
      3888        31  23SM      H12T           14.3129975270      -22.3417432923        9.4849748414  MEMB      31              0.0000000000
      3889        31  23SM      C13S           15.8654560666      -20.9087540923        8.9083850762  MEMB      31              0.0000000000
      3890        31  23SM      H13S           16.6502169017      -21.6724224653        8.7303686529  MEMB      31              0.0000000000
      3891        31  23SM      H13T           16.3685799549      -20.0105827940        9.3351262263  MEMB      31              0.0000000000
      3892        31  23SM      C14S           15.2641350950      -20.4782965691        7.5877857700  MEMB      31              0.0000000000
      3893        31  23SM      H14S           14.5419605585      -19.6446219196        7.7536073933  MEMB      31              0.0000000000
      3894        31  23SM      H14T           14.7079282815      -21.3187805149        7.1167352073  MEMB      31              0.0000000000
      3895        31  23SM      C15S           16.4034638693      -20.0225742819        6.6827057580  MEMB      31              0.0000000000
      3896        31  23SM      H15S           17.1533822090      -20.8363189929        6.5793455973  MEMB      31              0.0000000000
      3897        31  23SM      H15T           16.9114826465      -19.1494364039        7.1516667793  MEMB      31              0.0000000000
      3898        31  23SM      C16S           15.8643574041      -19.6554205160        5.3185649749  MEMB      31              0.0000000000
      3899        31  23SM      H16S           15.2279312371      -18.7570570452        5.4659030152  MEMB      31              0.0000000000
      3900        31  23SM      H16T           15.2149444069      -20.4813859573        4.9555777056  MEMB      31              0.0000000000
      3901        31  23SM      C17S           16.9159795278      -19.3627975664        4.2571799319  MEMB      31              0.0000000000
      3902        31  23SM      H17S           17.4997282618      -20.2733189635        4.0110209384  MEMB      31              0.0000000000
      3903        31  23SM      H17T           17.6132413959      -18.5754206002        4.6247213746  MEMB      31              0.0000000000
      3904        31  23SM      C18S           16.2214867087      -18.8839426214        3.0074895551  MEMB      31              0.0000000000
      3905        31  23SM      H18S           15.7844347576      -19.7138024033        2.4142196437  MEMB      31              0.0000000000
      3906        31  23SM      H18T           16.8855499164      -18.2904114821        2.3496221162  MEMB      31              0.0000000000
      3907        31  23SM      H18U           15.3961632231      -18.2344420815        3.3392042585  MEMB      31              0.0000000000
      3908        31  23SM      C1F            13.0865956675      -16.1322179027       20.6565724107  MEMB      31              0.0000000000
      3909        31  23SM      OF             13.6093975634      -15.1018199333       21.0818568595  MEMB      31              0.0000000000
      3910        31  23SM      C2F            11.7056772911      -16.1553610856       20.1113681231  MEMB      31              0.0000000000
      3911        31  23SM      H2F            10.9588656622      -15.7973035562       20.8488323887  MEMB      31              0.0000000000
      3912        31  23SM      H2G            11.3957398985      -17.1671659326       19.7648661892  MEMB      31              0.0000000000
      3913        31  23SM      C3F            11.6535498419      -15.2155225714       18.9030323258  MEMB      31              0.0000000000
      3914        31  23SM      H3F            11.8141829267      -14.1448802820       19.1483645444  MEMB      31              0.0000000000
      3915        31  23SM      H3G            10.5821849358      -15.2930331076       18.6891499250  MEMB      31              0.0000000000
      3916        31  23SM      C4F            12.5209048662      -15.6648461538       17.7211308272  MEMB      31              0.0000000000
      3917        31  23SM      H4F            13.5835365081      -15.7563926732       18.0329886045  MEMB      31              0.0000000000
      3918        31  23SM      H4G            12.4862152167      -14.8958152197       16.9137314438  MEMB      31              0.0000000000
      3919        31  23SM      C5F            12.0600781049      -17.0067797014       17.1380308838  MEMB      31              0.0000000000
      3920        31  23SM      H5F            10.9551941539      -17.0925881088       17.2278291132  MEMB      31              0.0000000000
      3921        31  23SM      H5G            12.5027074889      -17.8343672098       17.7304857907  MEMB      31              0.0000000000
      3922        31  23SM      C6F            12.4292890962      -17.0976581220       15.6598908353  MEMB      31              0.0000000000
      3923        31  23SM      H6F            12.5452388846      -18.1413217476       15.3027627849  MEMB      31              0.0000000000
      3924        31  23SM      H6G            13.4026421643      -16.5698177190       15.5239101144  MEMB      31              0.0000000000
      3925        31  23SM      C7F            11.3928519577      -16.4212488847       14.7724173249  MEMB      31              0.0000000000
      3926        31  23SM      H7F            10.8674678764      -15.6725306173       15.3822060293  MEMB      31              0.0000000000
      3927        31  23SM      H7G            10.6377660262      -17.1648114301       14.4381505647  MEMB      31              0.0000000000
      3928        31  23SM      C8F            12.0464806842      -15.6577570641       13.6258557413  MEMB      31              0.0000000000
      3929        31  23SM      H8F            12.6923294859      -14.8577886298       14.0512803276  MEMB      31              0.0000000000
      3930        31  23SM      H8G            11.2530029638      -15.1588728896       13.0364174386  MEMB      31              0.0000000000
      3931        31  23SM      C9F            12.8821962486      -16.5853575269       12.7501918032  MEMB      31              0.0000000000
      3932        31  23SM      H9F            13.5615482932      -17.1915842027       13.3870250789  MEMB      31              0.0000000000
      3933        31  23SM      H9G            13.5222409736      -15.9929110721       12.0645241779  MEMB      31              0.0000000000
      3934        31  23SM      C10F           11.9789715215      -17.5196511627       11.9597145373  MEMB      31              0.0000000000
      3935        31  23SM      H10F           11.2810818294      -18.0533614885       12.6418822302  MEMB      31              0.0000000000
      3936        31  23SM      H10G           12.5983605286      -18.2879365133       11.4444542195  MEMB      31              0.0000000000
      3937        31  23SM      C11F           11.1540385140      -16.7914708316       10.9092236232  MEMB      31              0.0000000000
      3938        31  23SM      H11F           10.4695831068      -16.0281758546       11.3332395098  MEMB      31              0.0000000000
      3939        31  23SM      H11G           10.5053579250      -17.5888370368       10.4997413619  MEMB      31              0.0000000000
      3940        31  23SM      C12F           12.0519043876      -16.1349352758        9.8560748657  MEMB      31              0.0000000000
      3941        31  23SM      H12F           12.9567409619      -16.7667485860        9.7051818251  MEMB      31              0.0000000000
      3942        31  23SM      H12G           12.4091876291      -15.1473999103       10.2269430392  MEMB      31              0.0000000000
      3943        31  23SM      C13F           11.3479573594      -15.9562503643        8.5166475128  MEMB      31              0.0000000000
      3944        31  23SM      H13F           12.0677119690      -15.5729629666        7.7620370222  MEMB      31              0.0000000000
      3945        31  23SM      H13G           10.5517795066      -15.1854423244        8.6285518828  MEMB      31              0.0000000000
      3946        31  23SM      C14F           10.6959300513      -17.2496525934        8.0208575136  MEMB      31              0.0000000000
      3947        31  23SM      H14F           10.1895107969      -17.0387718444        7.0739638340  MEMB      31              0.0000000000
      3948        31  23SM      H14G            9.8822151313      -17.5697896393        8.6934427489  MEMB      31              0.0000000000
      3949        31  23SM      C15F           11.6061033894      -18.4637414472        7.8753836372  MEMB      31              0.0000000000
      3950        31  23SM      H15F           10.9991937925      -19.3294826062        8.2116863867  MEMB      31              0.0000000000
      3951        31  23SM      H15G           12.5043697391      -18.4153077166        8.5178058609  MEMB      31              0.0000000000
      3952        31  23SM      C16F           11.9715117000      -18.7034862157        6.4278584688  MEMB      31              0.0000000000
      3953        31  23SM      H16F           11.0161962629      -18.7871484022        5.8708913303  MEMB      31              0.0000000000
      3954        31  23SM      H16G           12.5176929378      -19.6609253484        6.2802607134  MEMB      31              0.0000000000
      3955        31  23SM      C17F           12.7441906335      -17.5565425851        5.7901249256  MEMB      31              0.0000000000
      3956        31  23SM      H17F           13.7311653477      -17.4441864363        6.2848113626  MEMB      31              0.0000000000
      3957        31  23SM      H17G           12.1776147198      -16.6084187531        5.8947708971  MEMB      31              0.0000000000
      3958        31  23SM      C18F           12.8346587614      -17.9265536277        4.3264699044  MEMB      31              0.0000000000
      3959        31  23SM      H18F           11.8134312507      -18.2272674820        4.0118935575  MEMB      31              0.0000000000
      3960        31  23SM      H18G           13.4751276880      -18.8329847237        4.2402536412  MEMB      31              0.0000000000
      3961        31  23SM      C19F           13.2918352905      -16.8842120719        3.3231472286  MEMB      31              0.0000000000
      3962        31  23SM      H19F           14.2987260148      -16.5226802384        3.6261900967  MEMB      31              0.0000000000
      3963        31  23SM      H19G           12.6214922406      -16.0002415346        3.2939368782  MEMB      31              0.0000000000
      3964        31  23SM      C20F           13.3215315231      -17.6428291492        1.9889167217  MEMB      31              0.0000000000
      3965        31  23SM      H20F           13.7917268636      -18.6333405813        2.1540806473  MEMB      31              0.0000000000
      3966        31  23SM      H20G           13.9294356075      -17.1641575292        1.2120720064  MEMB      31              0.0000000000
      3967        31  23SM      C21F           11.9594461629      -17.9204277291        1.3767755818  MEMB      31              0.0000000000
      3968        31  23SM      H21F           11.4008406355      -16.9540970812        1.3694043432  MEMB      31              0.0000000000
      3969        31  23SM      H21G           11.3896556402      -18.6377451232        1.9939579086  MEMB      31              0.0000000000
      3970        31  23SM      C22F           12.1493963289      -18.3767321257       -0.0737731639  MEMB      31              0.0000000000
      3971        31  23SM      H22F           12.5529829314      -17.4460787980       -0.5026090018  MEMB      31              0.0000000000
      3972        31  23SM      H22G           11.2073013714      -18.5040599276       -0.5970203401  MEMB      31              0.0000000000
      3973        31  23SM      C23F           13.1247409234      -19.5210871293       -0.4195456530  MEMB      31              0.0000000000
      3974        31  23SM      H23F           13.8710978195      -19.1599349867       -1.1622685978  MEMB      31              0.0000000000
      3975        31  23SM      H23G           12.6081977233      -20.3893638341       -0.8839857269  MEMB      31              0.0000000000
      3976        31  23SM      H23H           13.6653500841      -19.8831132605        0.4758946368  MEMB      31              0.0000000000
      3977        32  CHL1      C3            -19.1493942307      -13.3107831021       17.5231115725  MEMB      32              0.0000000000
      3978        32  CHL1      H3            -18.8415634701      -12.2658929003       17.7631729348  MEMB      32              0.0000000000
      3979        32  CHL1      O3            -19.4554125397      -13.9958075452       18.7289503642  MEMB      32              0.0000000000
      3980        32  CHL1      H3'           -18.6104077018      -14.0618139767       19.1939277748  MEMB      32              0.0000000000
      3981        32  CHL1      C4            -20.4098723889      -13.2982465791       16.6573470358  MEMB      32              0.0000000000
      3982        32  CHL1      H4A           -20.8041975572      -14.3316067534       16.6108168589  MEMB      32              0.0000000000
      3983        32  CHL1      H4B           -21.1949387085      -12.7008717119       17.1735647837  MEMB      32              0.0000000000
      3984        32  CHL1      C5            -20.1490997930      -12.8057497048       15.2522122287  MEMB      32              0.0000000000
      3985        32  CHL1      C6            -20.7698146144      -11.7263513816       14.7819641374  MEMB      32              0.0000000000
      3986        32  CHL1      H6            -21.4864361932      -11.1733798038       15.4104275099  MEMB      32              0.0000000000
      3987        32  CHL1      C7            -20.7004664947      -11.2842539193       13.3776918191  MEMB      32              0.0000000000
      3988        32  CHL1      H7A           -21.7279315268      -11.0352890884       13.0678899729  MEMB      32              0.0000000000
      3989        32  CHL1      H7B           -20.0806359231      -10.3700617591       13.2722601564  MEMB      32              0.0000000000
      3990        32  CHL1      C8            -20.1436526568      -12.3893119033       12.4707580469  MEMB      32              0.0000000000
      3991        32  CHL1      H8            -20.9057857595      -13.1895293006       12.3687825911  MEMB      32              0.0000000000
      3992        32  CHL1      C14           -19.8164587716      -11.7598392297       11.1603678708  MEMB      32              0.0000000000
      3993        32  CHL1      H14           -18.8984729451      -11.1401196921       11.3550606285  MEMB      32              0.0000000000
      3994        32  CHL1      C15           -20.7937702095      -10.7129094061       10.6988465051  MEMB      32              0.0000000000
      3995        32  CHL1      H15A          -21.7929534558      -10.9256472972       11.0905259374  MEMB      32              0.0000000000
      3996        32  CHL1      H15B          -20.4402424314       -9.7165271605       11.0541009732  MEMB      32              0.0000000000
      3997        32  CHL1      C16           -20.7636183031      -10.8268051178        9.2035015675  MEMB      32              0.0000000000
      3998        32  CHL1      H16A          -21.7283429278      -11.2475975857        8.8441467466  MEMB      32              0.0000000000
      3999        32  CHL1      H16B          -20.6089580527       -9.8174285564        8.8303388110  MEMB      32              0.0000000000
      4000        32  CHL1      C17           -19.5468406034      -11.7076866094        8.8273841941  MEMB      32              0.0000000000
      4001        32  CHL1      H17           -18.6545257708      -11.0452337217        8.9013308087  MEMB      32              0.0000000000
      4002        32  CHL1      C13           -19.4477862023      -12.6883740824       10.0140276222  MEMB      32              0.0000000000
      4003        32  CHL1      C18           -20.4686605064      -13.8235469290        9.7580039416  MEMB      32              0.0000000000
      4004        32  CHL1      H18A          -20.0322736510      -14.5497771859        9.0419249369  MEMB      32              0.0000000000
      4005        32  CHL1      H18B          -20.7118111854      -14.3841472699       10.6786650838  MEMB      32              0.0000000000
      4006        32  CHL1      H18C          -21.4145406154      -13.4437090525        9.3242149332  MEMB      32              0.0000000000
      4007        32  CHL1      C12           -18.0730436157      -13.2070169978       10.4700907439  MEMB      32              0.0000000000
      4008        32  CHL1      H12A          -17.6754811178      -13.9320234275        9.7371248327  MEMB      32              0.0000000000
      4009        32  CHL1      H12B          -17.3658905845      -12.3488091164       10.5182745032  MEMB      32              0.0000000000
      4010        32  CHL1      C11           -18.1633721685      -13.8426713446       11.8956750140  MEMB      32              0.0000000000
      4011        32  CHL1      H11A          -18.7045081438      -14.7993283424       11.7618189009  MEMB      32              0.0000000000
      4012        32  CHL1      H11B          -17.1392393852      -14.0628475121       12.2215329058  MEMB      32              0.0000000000
      4013        32  CHL1      C9            -18.8594934589      -12.9719725835       13.0103186638  MEMB      32              0.0000000000
      4014        32  CHL1      H9            -18.1815957523      -12.1030748590       13.1621663052  MEMB      32              0.0000000000
      4015        32  CHL1      C10           -19.1079420325      -13.5828870890       14.4311052725  MEMB      32              0.0000000000
      4016        32  CHL1      C19           -19.5499425035      -15.0453248365       14.2069911841  MEMB      32              0.0000000000
      4017        32  CHL1      H19A          -19.8831101350      -15.5502284889       15.1316172158  MEMB      32              0.0000000000
      4018        32  CHL1      H19B          -20.3910257151      -15.0651387504       13.4825043956  MEMB      32              0.0000000000
      4019        32  CHL1      H19C          -18.7144358899      -15.6343862836       13.7784841480  MEMB      32              0.0000000000
      4020        32  CHL1      C1            -17.8505307361      -13.4827419021       15.3368517965  MEMB      32              0.0000000000
      4021        32  CHL1      H1A           -17.0758673314      -14.0679126515       14.8425822213  MEMB      32              0.0000000000
      4022        32  CHL1      H1B           -17.4880993710      -12.4324084360       15.3837763256  MEMB      32              0.0000000000
      4023        32  CHL1      C2            -18.0019688388      -14.0107531530       16.7806650402  MEMB      32              0.0000000000
      4024        32  CHL1      H2A           -17.0497206311      -13.8592512705       17.3367661459  MEMB      32              0.0000000000
      4025        32  CHL1      H2B           -18.2008756085      -15.1005931964       16.7273949788  MEMB      32              0.0000000000
      4026        32  CHL1      C20           -19.6614407168      -12.1833724496        7.3635046873  MEMB      32              0.0000000000
      4027        32  CHL1      H20           -20.4173615500      -12.9969371307        7.2966586328  MEMB      32              0.0000000000
      4028        32  CHL1      C21           -18.3108569579      -12.7478349081        6.8806033710  MEMB      32              0.0000000000
      4029        32  CHL1      H21A          -18.4195070300      -13.1145782190        5.8373864554  MEMB      32              0.0000000000
      4030        32  CHL1      H21B          -17.9894232741      -13.6044767721        7.5063699543  MEMB      32              0.0000000000
      4031        32  CHL1      H21C          -17.5274467030      -11.9617198943        6.8973131068  MEMB      32              0.0000000000
      4032        32  CHL1      C22           -20.1798751909      -11.0214470653        6.4452875494  MEMB      32              0.0000000000
      4033        32  CHL1      H22A          -21.2552431012      -10.8472049001        6.6639339433  MEMB      32              0.0000000000
      4034        32  CHL1      H22B          -19.6256698166      -10.1052316060        6.7451029152  MEMB      32              0.0000000000
      4035        32  CHL1      C23           -20.0055792539      -11.1283844494        4.9081462090  MEMB      32              0.0000000000
      4036        32  CHL1      H23A          -18.9207985911      -10.9873251153        4.7592919942  MEMB      32              0.0000000000
      4037        32  CHL1      H23B          -20.2191415631      -12.1427478032        4.5177957517  MEMB      32              0.0000000000
      4038        32  CHL1      C24           -20.8415875339      -10.0659629521        4.1145024514  MEMB      32              0.0000000000
      4039        32  CHL1      H24A          -21.8938111259      -10.4057742470        4.0923416892  MEMB      32              0.0000000000
      4040        32  CHL1      H24B          -20.7916056763       -9.1119145072        4.6844663860  MEMB      32              0.0000000000
      4041        32  CHL1      C25           -20.3391468215       -9.7552373077        2.6699588329  MEMB      32              0.0000000000
      4042        32  CHL1      H25           -19.2989410264      -10.0775260518        2.8014356759  MEMB      32              0.0000000000
      4043        32  CHL1      C26           -20.9506186067      -10.5687286800        1.5007686151  MEMB      32              0.0000000000
      4044        32  CHL1      H26A          -21.3617596912      -11.5322856377        1.8401242260  MEMB      32              0.0000000000
      4045        32  CHL1      H26B          -21.7133522525      -10.0385791739        0.8965781590  MEMB      32              0.0000000000
      4046        32  CHL1      H26C          -20.1688539675      -10.7911465370        0.7592815018  MEMB      32              0.0000000000
      4047        32  CHL1      C27           -20.2209741128       -8.2718518147        2.2885698771  MEMB      32              0.0000000000
      4048        32  CHL1      H27A          -20.6810189809       -8.1053537293        1.2913282362  MEMB      32              0.0000000000
      4049        32  CHL1      H27B          -20.7670403760       -7.6567976037        3.0100935984  MEMB      32              0.0000000000
      4050        32  CHL1      H27C          -19.1927726245       -7.8500504139        2.2466456293  MEMB      32              0.0000000000
      4051        33  23SM      N               9.2493066504      -22.2970448211       28.0462756892  MEMB      33              0.0000000000
      4052        33  23SM      C15             9.8439470979      -23.5672236386       27.5298498112  MEMB      33              0.0000000000
      4053        33  23SM      H15A            9.5382966133      -23.7283146633       26.4944268460  MEMB      33              0.0000000000
      4054        33  23SM      H15B            9.5290951216      -24.4399790962       28.1014816158  MEMB      33              0.0000000000
      4055        33  23SM      H15C           10.9276925490      -23.5080562920       27.5711584572  MEMB      33              0.0000000000
      4056        33  23SM      C14             7.7970325258      -22.5588790708       28.2855168289  MEMB      33              0.0000000000
      4057        33  23SM      H14A            7.3536111970      -22.9871856158       27.3807804724  MEMB      33              0.0000000000
      4058        33  23SM      H14B            7.2458661393      -21.6693219020       28.5120725562  MEMB      33              0.0000000000
      4059        33  23SM      H14C            7.6581105009      -23.2844060133       29.0845809619  MEMB      33              0.0000000000
      4060        33  23SM      C13             9.9599520263      -21.9936366807       29.3116182752  MEMB      33              0.0000000000
      4061        33  23SM      H13A           10.9920990444      -21.7253656377       29.1118869547  MEMB      33              0.0000000000
      4062        33  23SM      H13B           10.0062888953      -22.8742422673       29.9541087968  MEMB      33              0.0000000000
      4063        33  23SM      H13C            9.4704334145      -21.2056374931       29.8651120891  MEMB      33              0.0000000000
      4064        33  23SM      C12             9.4646864239      -21.1794893366       27.0350835710  MEMB      33              0.0000000000
      4065        33  23SM      H12A           10.4826376969      -21.2788702446       26.6715720921  MEMB      33              0.0000000000
      4066        33  23SM      H12B            9.3695487930      -20.2068380583       27.5022495417  MEMB      33              0.0000000000
      4067        33  23SM      C11             8.5823950306      -21.1939313742       25.7758701157  MEMB      33              0.0000000000
      4068        33  23SM      H11A            8.9006375841      -20.3649511985       25.1019474127  MEMB      33              0.0000000000
      4069        33  23SM      H11B            7.5236027058      -20.9820612514       26.0721652219  MEMB      33              0.0000000000
      4070        33  23SM      P               7.5425183692      -23.1118272512       24.3680279616  MEMB      33              0.0000000000
      4071        33  23SM      O13             7.8536767254      -24.5468786609       24.1620902864  MEMB      33              0.0000000000
      4072        33  23SM      O14             6.3025262433      -22.7694544192       25.1000556445  MEMB      33              0.0000000000
      4073        33  23SM      O11             7.5613700478      -22.3383001542       22.9834674050  MEMB      33              0.0000000000
      4074        33  23SM      O12             8.7719186719      -22.4439152835       25.1130810207  MEMB      33              0.0000000000
      4075        33  23SM      C1S             8.8187542154      -21.8707487594       22.4771973846  MEMB      33              0.0000000000
      4076        33  23SM      H1S             9.6734845828      -22.5305414608       22.7668808897  MEMB      33              0.0000000000
      4077        33  23SM      H1T             9.0188354900      -20.8544449791       22.8834465313  MEMB      33              0.0000000000
      4078        33  23SM      NF              9.9653806937      -22.5192930839       20.3791902598  MEMB      33              0.0000000000
      4079        33  23SM      HNF            10.7987065292      -21.9844227500       20.2434769251  MEMB      33              0.0000000000
      4080        33  23SM      C2S             8.8283028604      -21.7817993815       20.9291765585  MEMB      33              0.0000000000
      4081        33  23SM      H2S             7.8806365387      -22.2297239154       20.5444531881  MEMB      33              0.0000000000
      4082        33  23SM      C3S             8.8570545842      -20.2897129470       20.5015555074  MEMB      33              0.0000000000
      4083        33  23SM      H3S             9.7565087306      -19.7915042211       20.9178193971  MEMB      33              0.0000000000
      4084        33  23SM      O3              7.7409838831      -19.5037787314       20.9160143934  MEMB      33              0.0000000000
      4085        33  23SM      HO3             7.3863585037      -19.9291973146       21.7052876940  MEMB      33              0.0000000000
      4086        33  23SM      C4S             8.8838484762      -20.2701315415       19.0072811415  MEMB      33              0.0000000000
      4087        33  23SM      H4S             7.9079264039      -20.4793079488       18.5475271323  MEMB      33              0.0000000000
      4088        33  23SM      C5S             9.9374028222      -19.9857793540       18.2259447978  MEMB      33              0.0000000000
      4089        33  23SM      H5S            10.9084238234      -19.7199566274       18.6766717580  MEMB      33              0.0000000000
      4090        33  23SM      C6S             9.8645749765      -20.0006383166       16.7281832414  MEMB      33              0.0000000000
      4091        33  23SM      H6S            10.0311392929      -18.9781186270       16.3199294238  MEMB      33              0.0000000000
      4092        33  23SM      H6T             8.8652619396      -20.3341939635       16.3616643412  MEMB      33              0.0000000000
      4093        33  23SM      C7S            10.9159878374      -20.9516565073       16.1458562771  MEMB      33              0.0000000000
      4094        33  23SM      H7S            10.7877749472      -21.9862549161       16.5242512904  MEMB      33              0.0000000000
      4095        33  23SM      H7T            11.9321270517      -20.6154761383       16.4515462946  MEMB      33              0.0000000000
      4096        33  23SM      C8S            10.8170413161      -20.9377004037       14.6234018628  MEMB      33              0.0000000000
      4097        33  23SM      H8S            10.8456702814      -19.8627273878       14.3226863550  MEMB      33              0.0000000000
      4098        33  23SM      H8T             9.8448022072      -21.3570536405       14.2843327289  MEMB      33              0.0000000000
      4099        33  23SM      C9S            11.9634774918      -21.6363577175       13.8977142384  MEMB      33              0.0000000000
      4100        33  23SM      H9S            11.8291837575      -22.7394037432       13.8634365320  MEMB      33              0.0000000000
      4101        33  23SM      H9T            12.9186745814      -21.4266939682       14.4326048040  MEMB      33              0.0000000000
      4102        33  23SM      C10S           12.0855812726      -21.0495975236       12.4947370879  MEMB      33              0.0000000000
      4103        33  23SM      H10S           13.0167518030      -21.4122995765       12.0243573134  MEMB      33              0.0000000000
      4104        33  23SM      H10T           12.1789208534      -19.9522727040       12.5924006601  MEMB      33              0.0000000000
      4105        33  23SM      C11S           10.9419410273      -21.3809151980       11.5420666749  MEMB      33              0.0000000000
      4106        33  23SM      H11S           10.0198889506      -20.8024433673       11.7723631779  MEMB      33              0.0000000000
      4107        33  23SM      H11T           10.6996552312      -22.4630510689       11.6438108086  MEMB      33              0.0000000000
      4108        33  23SM      C12S           11.4126833310      -21.1292067480       10.1040025909  MEMB      33              0.0000000000
      4109        33  23SM      H12S           12.3360774769      -21.7233076860        9.9726607185  MEMB      33              0.0000000000
      4110        33  23SM      H12T           11.6599127935      -20.0560058252        9.9828365871  MEMB      33              0.0000000000
      4111        33  23SM      C13S           10.4031541305      -21.6654919987        9.0982801014  MEMB      33              0.0000000000
      4112        33  23SM      H13S            9.4575464654      -21.0868543984        9.1969667991  MEMB      33              0.0000000000
      4113        33  23SM      H13T           10.2521375546      -22.6913961419        9.4753086292  MEMB      33              0.0000000000
      4114        33  23SM      C14S           10.7821426682      -21.8449134047        7.6090772877  MEMB      33              0.0000000000
      4115        33  23SM      H14S           11.0838125734      -22.9033523045        7.4341680568  MEMB      33              0.0000000000
      4116        33  23SM      H14T           11.6536106149      -21.2208058841        7.3448246850  MEMB      33              0.0000000000
      4117        33  23SM      C15S            9.5489754433      -21.5122061991        6.7473915030  MEMB      33              0.0000000000
      4118        33  23SM      H15S            9.1288280730      -20.5534058910        7.1392978902  MEMB      33              0.0000000000
      4119        33  23SM      H15T            8.7555974394      -22.2745420181        6.8762796974  MEMB      33              0.0000000000
      4120        33  23SM      C16S            9.6919421344      -21.2796937707        5.2457592951  MEMB      33              0.0000000000
      4121        33  23SM      H16S            9.9104769077      -20.2047451474        5.1196763662  MEMB      33              0.0000000000
      4122        33  23SM      H16T            8.7065163464      -21.4542163665        4.7549302015  MEMB      33              0.0000000000
      4123        33  23SM      C17S           10.7552545008      -21.9671892743        4.4135669113  MEMB      33              0.0000000000
      4124        33  23SM      H17S           10.4663101533      -23.0025740728        4.1485912928  MEMB      33              0.0000000000
      4125        33  23SM      H17T           11.7474812026      -21.9832951551        4.9192499443  MEMB      33              0.0000000000
      4126        33  23SM      C18S           10.8216356387      -21.1079775221        3.1552124702  MEMB      33              0.0000000000
      4127        33  23SM      H18S           11.3300250590      -21.6093560219        2.3246684605  MEMB      33              0.0000000000
      4128        33  23SM      H18T           11.3847197833      -20.1865902418        3.4045265927  MEMB      33              0.0000000000
      4129        33  23SM      H18U            9.8010538454      -20.8176136823        2.8246837663  MEMB      33              0.0000000000
      4130        33  23SM      C1F             9.8807671388      -23.8347626927       20.1571050323  MEMB      33              0.0000000000
      4131        33  23SM      OF              9.0557005696      -24.5332803323       20.7254068239  MEMB      33              0.0000000000
      4132        33  23SM      C2F            10.7660552669      -24.4190173859       19.1095431001  MEMB      33              0.0000000000
      4133        33  23SM      H2F            11.4255113887      -25.1775916403       19.5823316642  MEMB      33              0.0000000000
      4134        33  23SM      H2G            11.3856551975      -23.6215508461       18.6494271478  MEMB      33              0.0000000000
      4135        33  23SM      C3F             9.8795496555      -25.0892557353       18.0292297341  MEMB      33              0.0000000000
      4136        33  23SM      H3F             9.3576622201      -25.9684481474       18.4723510510  MEMB      33              0.0000000000
      4137        33  23SM      H3G            10.5455580084      -25.4784268788       17.2297064499  MEMB      33              0.0000000000
      4138        33  23SM      C4F             8.8091741791      -24.1389562837       17.4473105577  MEMB      33              0.0000000000
      4139        33  23SM      H4F             9.2922378651      -23.2315489878       17.0395979533  MEMB      33              0.0000000000
      4140        33  23SM      H4G             8.1282939392      -23.8018710420       18.2632974333  MEMB      33              0.0000000000
      4141        33  23SM      C5F             7.9155031097      -24.7537050632       16.3691685949  MEMB      33              0.0000000000
      4142        33  23SM      H5F             7.0726809753      -24.0600486503       16.1496729966  MEMB      33              0.0000000000
      4143        33  23SM      H5G             7.4858036917      -25.7006970846       16.7682046966  MEMB      33              0.0000000000
      4144        33  23SM      C6F             8.6620574932      -25.0333102977       15.0671538950  MEMB      33              0.0000000000
      4145        33  23SM      H6F             9.5911053720      -25.5759310874       15.3451707526  MEMB      33              0.0000000000
      4146        33  23SM      H6G             8.9663675138      -24.0978158341       14.5516088898  MEMB      33              0.0000000000
      4147        33  23SM      C7F             7.8375481985      -25.9445729463       14.1562304428  MEMB      33              0.0000000000
      4148        33  23SM      H7F             7.3904669927      -26.6875796335       14.8446910875  MEMB      33              0.0000000000
      4149        33  23SM      H7G             8.5032747715      -26.4662077883       13.4319435075  MEMB      33              0.0000000000
      4150        33  23SM      C8F             6.6573367471      -25.3029575442       13.4237380886  MEMB      33              0.0000000000
      4151        33  23SM      H8F             5.9917724322      -24.8053736348       14.1615634506  MEMB      33              0.0000000000
      4152        33  23SM      H8G             6.0685718518      -26.1069095962       12.9215204179  MEMB      33              0.0000000000
      4153        33  23SM      C9F             7.0916262819      -24.2964530516       12.3701156234  MEMB      33              0.0000000000
      4154        33  23SM      H9F             7.9171838384      -23.6615731608       12.7631112693  MEMB      33              0.0000000000
      4155        33  23SM      H9G             6.2430535145      -23.6178869018       12.1282239584  MEMB      33              0.0000000000
      4156        33  23SM      C10F            7.5487785601      -24.9775418004       11.0845736966  MEMB      33              0.0000000000
      4157        33  23SM      H10F            6.7132185013      -25.5343241464       10.6258570465  MEMB      33              0.0000000000
      4158        33  23SM      H10G            8.3586659452      -25.7102806514       11.2943700610  MEMB      33              0.0000000000
      4159        33  23SM      C11F            8.0551061514      -23.9234790072       10.1208186783  MEMB      33              0.0000000000
      4160        33  23SM      H11F            8.8331110090      -23.3602594335       10.6853369678  MEMB      33              0.0000000000
      4161        33  23SM      H11G            7.2510192083      -23.1972413972        9.8695579530  MEMB      33              0.0000000000
      4162        33  23SM      C12F            8.6694384056      -24.5113421447        8.8520708435  MEMB      33              0.0000000000
      4163        33  23SM      H12F            9.5580484079      -25.1202465713        9.1064615453  MEMB      33              0.0000000000
      4164        33  23SM      H12G            9.0245733907      -23.6683857398        8.2380767396  MEMB      33              0.0000000000
      4165        33  23SM      C13F            7.7333746422      -25.2886029141        7.9376600837  MEMB      33              0.0000000000
      4166        33  23SM      H13F            6.7678897811      -24.7331953728        7.8630649735  MEMB      33              0.0000000000
      4167        33  23SM      H13G            7.5250921320      -26.2929682789        8.3589368070  MEMB      33              0.0000000000
      4168        33  23SM      C14F            8.3205088011      -25.3957303616        6.5223818716  MEMB      33              0.0000000000
      4169        33  23SM      H14F            8.3657153295      -24.3662951434        6.0946529806  MEMB      33              0.0000000000
      4170        33  23SM      H14G            7.5995169456      -25.9876552686        5.9178007630  MEMB      33              0.0000000000
      4171        33  23SM      C15F            9.7326622296      -26.0174443243        6.4006348619  MEMB      33              0.0000000000
      4172        33  23SM      H15F            9.6799987564      -27.0955550929        6.6615395570  MEMB      33              0.0000000000
      4173        33  23SM      H15G           10.4382653433      -25.5303927633        7.1101232185  MEMB      33              0.0000000000
      4174        33  23SM      C16F           10.3474503847      -25.8680347547        4.9929097419  MEMB      33              0.0000000000
      4175        33  23SM      H16F           11.2500581228      -26.5103247137        4.8909946487  MEMB      33              0.0000000000
      4176        33  23SM      H16G           10.6887404345      -24.8201612868        4.8903277482  MEMB      33              0.0000000000
      4177        33  23SM      C17F            9.3544546882      -26.1968905856        3.8748795993  MEMB      33              0.0000000000
      4178        33  23SM      H17F            8.3751614383      -25.7086885722        4.0721117047  MEMB      33              0.0000000000
      4179        33  23SM      H17G            9.1964006804      -27.2951881821        3.8485552191  MEMB      33              0.0000000000
      4180        33  23SM      C18F            9.7102964981      -25.6784471055        2.4859300738  MEMB      33              0.0000000000
      4181        33  23SM      H18F           10.6534941781      -26.1243497223        2.1064356954  MEMB      33              0.0000000000
      4182        33  23SM      H18G            9.8283673293      -24.5746565309        2.5324536074  MEMB      33              0.0000000000
      4183        33  23SM      C19F            8.5572283213      -25.9887882602        1.5386682306  MEMB      33              0.0000000000
      4184        33  23SM      H19F            7.5916413088      -25.6324098908        1.9568905762  MEMB      33              0.0000000000
      4185        33  23SM      H19G            8.4679525182      -27.0723203798        1.4385544977  MEMB      33              0.0000000000
      4186        33  23SM      C20F            8.7407545795      -25.4351040580        0.1457240458  MEMB      33              0.0000000000
      4187        33  23SM      H20F            9.6838310095      -25.8146331175       -0.2917473518  MEMB      33              0.0000000000
      4188        33  23SM      H20G            8.8617572179      -24.3379380776        0.2245474063  MEMB      33              0.0000000000
      4189        33  23SM      C21F            7.5402432594      -25.7879357441       -0.7327605387  MEMB      33              0.0000000000
      4190        33  23SM      H21F            6.5923425076      -25.6220952761       -0.1755084688  MEMB      33              0.0000000000
      4191        33  23SM      H21G            7.5862368408      -26.8709548248       -0.9967316865  MEMB      33              0.0000000000
      4192        33  23SM      C22F            7.5532334659      -24.9382498375       -1.9949879814  MEMB      33              0.0000000000
      4193        33  23SM      H22F            6.8838830415      -25.3926462080       -2.7602202229  MEMB      33              0.0000000000
      4194        33  23SM      H22G            8.5973004222      -24.9606538743       -2.3460605408  MEMB      33              0.0000000000
      4195        33  23SM      C23F            7.2165365536      -23.4672239279       -1.8152341144  MEMB      33              0.0000000000
      4196        33  23SM      H23F            7.4615799908      -22.8774574837       -2.7247405524  MEMB      33              0.0000000000
      4197        33  23SM      H23G            7.7590276505      -23.0156995766       -0.9630468258  MEMB      33              0.0000000000
      4198        33  23SM      H23H            6.1416481522      -23.4061500302       -1.5965039028  MEMB      33              0.0000000000
      4199        34  CHL1      C3              1.9987616943       24.3218114615       17.3670590193  MEMB      34              0.0000000000
      4200        34  CHL1      H3              2.2427642626       23.2329887244       17.3459172587  MEMB      34              0.0000000000
      4201        34  CHL1      O3              1.8643647796       24.7098112603       18.7234027541  MEMB      34              0.0000000000
      4202        34  CHL1      H3'             2.3305190164       25.5509587146       18.8299489120  MEMB      34              0.0000000000
      4203        34  CHL1      C4              3.1497527417       25.1170299631       16.7412164507  MEMB      34              0.0000000000
      4204        34  CHL1      H4A             2.9601721086       26.2025466734       16.8654056824  MEMB      34              0.0000000000
      4205        34  CHL1      H4B             4.0818450746       24.8884271466       17.3102315934  MEMB      34              0.0000000000
      4206        34  CHL1      C5              3.2713615981       24.7532130521       15.2786396478  MEMB      34              0.0000000000
      4207        34  CHL1      C6              4.3892636786       24.1831836030       14.8036278598  MEMB      34              0.0000000000
      4208        34  CHL1      H6              5.2653457624       24.0278598694       15.4522554294  MEMB      34              0.0000000000
      4209        34  CHL1      C7              4.5420769620       23.8064321721       13.3679594292  MEMB      34              0.0000000000
      4210        34  CHL1      H7A             5.5924026508       23.9115344991       13.0490488811  MEMB      34              0.0000000000
      4211        34  CHL1      H7B             4.2369318770       22.7454673862       13.2133585425  MEMB      34              0.0000000000
      4212        34  CHL1      C8              3.6215689019       24.6922983496       12.5031687911  MEMB      34              0.0000000000
      4213        34  CHL1      H8              3.8923238124       25.7532342808       12.6694270403  MEMB      34              0.0000000000
      4214        34  CHL1      C14             3.8452991802       24.3665090278       11.0485234965  MEMB      34              0.0000000000
      4215        34  CHL1      H14             3.6890900808       23.2615082685       10.9427421118  MEMB      34              0.0000000000
      4216        34  CHL1      C15             5.2466921764       24.6384718050       10.5143475285  MEMB      34              0.0000000000
      4217        34  CHL1      H15A            5.5585064840       25.6777008177       10.7606811701  MEMB      34              0.0000000000
      4218        34  CHL1      H15B            5.9873982052       23.9276307592       10.9250241676  MEMB      34              0.0000000000
      4219        34  CHL1      C16             5.0468296092       24.4532117614        9.0116713313  MEMB      34              0.0000000000
      4220        34  CHL1      H16A            5.6612623729       25.1818894240        8.4548655845  MEMB      34              0.0000000000
      4221        34  CHL1      H16B            5.3622772641       23.4198258302        8.7482008063  MEMB      34              0.0000000000
      4222        34  CHL1      C17             3.5297406261       24.6312320824        8.7067087057  MEMB      34              0.0000000000
      4223        34  CHL1      H17             3.1394554912       23.6167596879        8.4653602298  MEMB      34              0.0000000000
      4224        34  CHL1      C13             2.9006188144       25.0452632157       10.0706066692  MEMB      34              0.0000000000
      4225        34  CHL1      C18             3.0204702108       26.5897860235       10.2163220200  MEMB      34              0.0000000000
      4226        34  CHL1      H18A            2.9010899782       26.9186874388       11.2640469037  MEMB      34              0.0000000000
      4227        34  CHL1      H18B            4.0030363660       26.9549851251        9.8588393997  MEMB      34              0.0000000000
      4228        34  CHL1      H18C            2.2299102665       27.1013059203        9.6356887122  MEMB      34              0.0000000000
      4229        34  CHL1      C12             1.4967146891       24.5131334582       10.4430500675  MEMB      34              0.0000000000
      4230        34  CHL1      H12A            0.7218153003       24.8475823621        9.7300566454  MEMB      34              0.0000000000
      4231        34  CHL1      H12B            1.5277498787       23.3994094124       10.4085311522  MEMB      34              0.0000000000
      4232        34  CHL1      C11             1.1243068991       24.9381809006       11.8868773987  MEMB      34              0.0000000000
      4233        34  CHL1      H11A            1.0121762226       26.0398917264       11.8802391527  MEMB      34              0.0000000000
      4234        34  CHL1      H11B            0.1369350903       24.5094468756       12.1553503318  MEMB      34              0.0000000000
      4235        34  CHL1      C9              2.1776981781       24.4811532417       12.9490572093  MEMB      34              0.0000000000
      4236        34  CHL1      H9              2.0530734782       23.3707857611       12.9879398927  MEMB      34              0.0000000000
      4237        34  CHL1      C10             1.9995116431       24.9911872874       14.4133457477  MEMB      34              0.0000000000
      4238        34  CHL1      C19             1.6901261812       26.5116694427       14.3702053934  MEMB      34              0.0000000000
      4239        34  CHL1      H19A            0.7326582148       26.7024769817       13.8453733834  MEMB      34              0.0000000000
      4240        34  CHL1      H19B            1.5708728698       26.9351601566       15.3867377092  MEMB      34              0.0000000000
      4241        34  CHL1      H19C            2.5009361819       27.0650543815       13.8531796820  MEMB      34              0.0000000000
      4242        34  CHL1      C1              0.8335912003       24.2292289431       15.1013045832  MEMB      34              0.0000000000
      4243        34  CHL1      H1A            -0.1135414944       24.4634730888       14.5704958303  MEMB      34              0.0000000000
      4244        34  CHL1      H1B             1.0195682261       23.1357824927       14.9922503641  MEMB      34              0.0000000000
      4245        34  CHL1      C2              0.6780267046       24.5456934196       16.6048984331  MEMB      34              0.0000000000
      4246        34  CHL1      H2A            -0.1198361153       23.9079302549       17.0395901113  MEMB      34              0.0000000000
      4247        34  CHL1      H2B             0.3638982606       25.6039090407       16.7321027665  MEMB      34              0.0000000000
      4248        34  CHL1      C20             3.3086626491       25.5518446355        7.4849283447  MEMB      34              0.0000000000
      4249        34  CHL1      H20             3.7474598197       26.5475707417        7.7248622586  MEMB      34              0.0000000000
      4250        34  CHL1      C21             1.7980257011       25.7251797586        7.2411608048  MEMB      34              0.0000000000
      4251        34  CHL1      H21A            1.3475355150       24.7582570624        6.9602119120  MEMB      34              0.0000000000
      4252        34  CHL1      H21B            1.6103898347       26.4574136399        6.4324660774  MEMB      34              0.0000000000
      4253        34  CHL1      H21C            1.2727736790       26.0959820433        8.1377642954  MEMB      34              0.0000000000
      4254        34  CHL1      C22             4.0219507655       25.1015500761        6.1673657977  MEMB      34              0.0000000000
      4255        34  CHL1      H22A            5.1081057112       24.9570258757        6.3554989475  MEMB      34              0.0000000000
      4256        34  CHL1      H22B            3.6113416533       24.1250148232        5.8406485038  MEMB      34              0.0000000000
      4257        34  CHL1      C23             3.8981512012       26.1281504036        5.0096785403  MEMB      34              0.0000000000
      4258        34  CHL1      H23A            2.8315988164       26.2625242859        4.7340299693  MEMB      34              0.0000000000
      4259        34  CHL1      H23B            4.2818211695       27.1053298049        5.3772260232  MEMB      34              0.0000000000
      4260        34  CHL1      C24             4.6821161545       25.7615537772        3.7301292774  MEMB      34              0.0000000000
      4261        34  CHL1      H24A            5.7215446916       25.5273557145        4.0531244393  MEMB      34              0.0000000000
      4262        34  CHL1      H24B            4.2383932289       24.8438010004        3.2847850317  MEMB      34              0.0000000000
      4263        34  CHL1      C25             4.7397450209       26.9003251141        2.6648037643  MEMB      34              0.0000000000
      4264        34  CHL1      H25             4.8596612669       27.8556329333        3.2276234827  MEMB      34              0.0000000000
      4265        34  CHL1      C26             5.9377591940       26.8137382444        1.6983142427  MEMB      34              0.0000000000
      4266        34  CHL1      H26A            5.9914813642       27.7055542237        1.0439681564  MEMB      34              0.0000000000
      4267        34  CHL1      H26B            6.8941920385       26.7383625428        2.2612527778  MEMB      34              0.0000000000
      4268        34  CHL1      H26C            5.8319929518       25.9194425763        1.0442532726  MEMB      34              0.0000000000
      4269        34  CHL1      C27             3.4708795554       26.9862856357        1.8041229586  MEMB      34              0.0000000000
      4270        34  CHL1      H27A            3.5770494976       27.8236417437        1.0797417848  MEMB      34              0.0000000000
      4271        34  CHL1      H27B            3.3340696416       26.0501379949        1.2206985996  MEMB      34              0.0000000000
      4272        34  CHL1      H27C            2.5700796248       27.1643922577        2.4235758365  MEMB      34              0.0000000000
      4273        35  DOPC      N              22.2612867740       11.3056672140       21.2755440327  MEMB      35              0.0000000000
      4274        35  DOPC      C12            21.0369548391       11.6822019150       20.4844718495  MEMB      35              0.0000000000
      4275        35  DOPC      H12A           20.2135200046       11.8684262689       21.1603323648  MEMB      35              0.0000000000
      4276        35  DOPC      H12B           20.7842674905       10.8139560833       19.8711687744  MEMB      35              0.0000000000
      4277        35  DOPC      C13            23.2072692668       12.4649361025       21.3920824433  MEMB      35              0.0000000000
      4278        35  DOPC      H13A           24.1743292989       12.1569649458       21.7685705631  MEMB      35              0.0000000000
      4279        35  DOPC      H13B           23.3669993268       12.9137026229       20.4013134090  MEMB      35              0.0000000000
      4280        35  DOPC      H13C           22.8117735943       13.2539816506       22.0142258640  MEMB      35              0.0000000000
      4281        35  DOPC      C14            22.9816567968       10.2203045376       20.5214142303  MEMB      35              0.0000000000
      4282        35  DOPC      H14A           22.3973761088        9.3218029470       20.3939439716  MEMB      35              0.0000000000
      4283        35  DOPC      H14B           23.2372101608       10.5557816874       19.5113621443  MEMB      35              0.0000000000
      4284        35  DOPC      H14C           23.9349096788        9.9642937156       20.9628370548  MEMB      35              0.0000000000
      4285        35  DOPC      C15            21.9348986749       10.7625178325       22.6258417606  MEMB      35              0.0000000000
      4286        35  DOPC      H15A           21.1612748572       10.0049866692       22.6019350185  MEMB      35              0.0000000000
      4287        35  DOPC      H15B           21.6503105664       11.5505095607       23.3105772476  MEMB      35              0.0000000000
      4288        35  DOPC      H15C           22.8511261131       10.3108925938       23.0035456405  MEMB      35              0.0000000000
      4289        35  DOPC      C11            21.0859702708       12.8618764924       19.4755681044  MEMB      35              0.0000000000
      4290        35  DOPC      H11A           20.3249227681       12.5198503221       18.7518892738  MEMB      35              0.0000000000
      4291        35  DOPC      H11B           20.7277360485       13.8104331010       19.9300396504  MEMB      35              0.0000000000
      4292        35  DOPC      P              22.7609665988       12.4062333010       17.4888169186  MEMB      35              0.0000000000
      4293        35  DOPC      O13            23.1251716122       11.0293649323       17.8060739765  MEMB      35              0.0000000000
      4294        35  DOPC      O14            23.7764122509       13.2300642259       16.8034670774  MEMB      35              0.0000000000
      4295        35  DOPC      O12            22.3337613147       13.1066866238       18.8388903667  MEMB      35              0.0000000000
      4296        35  DOPC      O11            21.4096216710       12.2599934528       16.6899713551  MEMB      35              0.0000000000
      4297        35  DOPC      C1             20.9727086159       10.9669877322       16.2254182599  MEMB      35              0.0000000000
      4298        35  DOPC      HA             20.0268633638       10.7416023463       16.7415960251  MEMB      35              0.0000000000
      4299        35  DOPC      HB             21.6357050201       10.0944935305       16.4516713432  MEMB      35              0.0000000000
      4300        35  DOPC      C2             20.6911484641       10.9452286040       14.7067332008  MEMB      35              0.0000000000
      4301        35  DOPC      HS             19.6770447953       10.4851870031       14.5813370296  MEMB      35              0.0000000000
      4302        35  DOPC      O21            21.6977797801       10.1719161431       14.0395942839  MEMB      35              0.0000000000
      4303        35  DOPC      C21            21.3016948682        9.7957593107       12.8325365083  MEMB      35              0.0000000000
      4304        35  DOPC      O22            20.1890940356        9.9635047042       12.3655297146  MEMB      35              0.0000000000
      4305        35  DOPC      C22            22.4236379524        9.0556910195       12.1304694084  MEMB      35              0.0000000000
      4306        35  DOPC      H2R            22.7149522667        8.2172315921       12.7973186297  MEMB      35              0.0000000000
      4307        35  DOPC      H2S            23.2502170622        9.7832219532       12.0357349707  MEMB      35              0.0000000000
      4308        35  DOPC      C3             20.6122677551       12.3647658836       14.0970543216  MEMB      35              0.0000000000
      4309        35  DOPC      HX             19.7477014581       12.7962493691       14.6329269608  MEMB      35              0.0000000000
      4310        35  DOPC      HY             20.3148004645       12.3196958846       13.0261091952  MEMB      35              0.0000000000
      4311        35  DOPC      O31            21.7113206241       13.2780078405       14.3304290133  MEMB      35              0.0000000000
      4312        35  DOPC      C31            22.6296413257       13.3733440294       13.3831668177  MEMB      35              0.0000000000
      4313        35  DOPC      O32            22.7470794816       12.6137975061       12.4404513641  MEMB      35              0.0000000000
      4314        35  DOPC      C32            23.4429996104       14.6737014864       13.5565120289  MEMB      35              0.0000000000
      4315        35  DOPC      H2X            22.7487498683       15.5337414596       13.6343478682  MEMB      35              0.0000000000
      4316        35  DOPC      H2Y            23.9951122189       14.5828565861       14.5158678628  MEMB      35              0.0000000000
      4317        35  DOPC      C23            21.9781705909        8.5661172469       10.7472479225  MEMB      35              0.0000000000
      4318        35  DOPC      H3R            20.9689921015        8.1176631122       10.8949028308  MEMB      35              0.0000000000
      4319        35  DOPC      H3S            22.7338013186        7.8772905520       10.2621630126  MEMB      35              0.0000000000
      4320        35  DOPC      C24            21.8062013243        9.7028281362        9.7486223550  MEMB      35              0.0000000000
      4321        35  DOPC      H4R            22.7126404912       10.3589980002        9.7115133247  MEMB      35              0.0000000000
      4322        35  DOPC      H4S            20.9771232803       10.3470926462       10.0814607537  MEMB      35              0.0000000000
      4323        35  DOPC      C25            21.4449581963        9.1308169295        8.3824417735  MEMB      35              0.0000000000
      4324        35  DOPC      H5R            20.3475213970        9.1988103796        8.2722806868  MEMB      35              0.0000000000
      4325        35  DOPC      H5S            21.6388153468        8.0397579812        8.3034926820  MEMB      35              0.0000000000
      4326        35  DOPC      C26            22.1442889970        9.9008952360        7.2727064931  MEMB      35              0.0000000000
      4327        35  DOPC      H6R            23.1089539811       10.3166792532        7.6342093399  MEMB      35              0.0000000000
      4328        35  DOPC      H6S            21.5251670039       10.7653081892        6.9637549818  MEMB      35              0.0000000000
      4329        35  DOPC      C27            22.4021698011        9.0238259487        6.0700127508  MEMB      35              0.0000000000
      4330        35  DOPC      H7R            21.5387365009        8.3264244611        5.9517765026  MEMB      35              0.0000000000
      4331        35  DOPC      H7S            23.3018884879        8.4136615826        6.2767420695  MEMB      35              0.0000000000
      4332        35  DOPC      C28            22.6205997592        9.8697130300        4.8203632217  MEMB      35              0.0000000000
      4333        35  DOPC      H8R            23.6073947293       10.3822773750        4.8726741909  MEMB      35              0.0000000000
      4334        35  DOPC      H8S            21.8402434818       10.6570271637        4.7584986623  MEMB      35              0.0000000000
      4335        35  DOPC      C29            22.5338728542        8.9496926757        3.6484989380  MEMB      35              0.0000000000
      4336        35  DOPC      H9R            23.4123607645        8.3286703964        3.4487683226  MEMB      35              0.0000000000
      4337        35  DOPC      C210           21.4583721227        8.7261351905        2.9092450766  MEMB      35              0.0000000000
      4338        35  DOPC      H10R           21.5309847143        7.9015185406        2.1911263277  MEMB      35              0.0000000000
      4339        35  DOPC      C211           20.1107310921        9.3529797492        3.1073957390  MEMB      35              0.0000000000
      4340        35  DOPC      H11R           19.8760940296        9.4561187665        4.1912590452  MEMB      35              0.0000000000
      4341        35  DOPC      H11S           19.4062542776        8.6430924562        2.6664672498  MEMB      35              0.0000000000
      4342        35  DOPC      C212           19.7474400414       10.6596730791        2.4059396789  MEMB      35              0.0000000000
      4343        35  DOPC      H12R           19.9427726231       10.5305223288        1.3169960418  MEMB      35              0.0000000000
      4344        35  DOPC      H12S           20.4312580189       11.4653567893        2.7274156166  MEMB      35              0.0000000000
      4345        35  DOPC      C213           18.2537266311       11.0635610455        2.5857912635  MEMB      35              0.0000000000
      4346        35  DOPC      H13R           18.0022855434       11.2729522880        3.6478540616  MEMB      35              0.0000000000
      4347        35  DOPC      H13S           17.6431842106       10.1855899442        2.2876534964  MEMB      35              0.0000000000
      4348        35  DOPC      C214           18.0433221394       12.2989016613        1.6682750124  MEMB      35              0.0000000000
      4349        35  DOPC      H14R           18.5486161825       12.0325146672        0.7601769263  MEMB      35              0.0000000000
      4350        35  DOPC      H14S           18.7426893874       13.0081673769        2.0522315978  MEMB      35              0.0000000000
      4351        35  DOPC      C215           16.6724309531       12.9782573711        1.3415854954  MEMB      35              0.0000000000
      4352        35  DOPC      H15R           16.6128363307       14.0080548666        1.7513534601  MEMB      35              0.0000000000
      4353        35  DOPC      H15S           16.0369256583       12.3658577848        2.0079347747  MEMB      35              0.0000000000
      4354        35  DOPC      C216           15.8299259957       12.9000300528       -0.0297932492  MEMB      35              0.0000000000
      4355        35  DOPC      H16R           15.3055463662       13.7696690995        0.3149197387  MEMB      35              0.0000000000
      4356        35  DOPC      H16S           15.0195722031       12.2193836892        0.1917643964  MEMB      35              0.0000000000
      4357        35  DOPC      C217           15.8252068884       13.6426833638       -1.4658936327  MEMB      35              0.0000000000
      4358        35  DOPC      H17R           16.7377246098       14.1952631811       -1.5627716382  MEMB      35              0.0000000000
      4359        35  DOPC      H17S           15.1073346653       14.4904481152       -1.5248606337  MEMB      35              0.0000000000
      4360        35  DOPC      C218           15.6220781494       12.9528287336       -2.8499276508  MEMB      35              0.0000000000
      4361        35  DOPC      H18R           14.6859654451       13.3005534909       -3.3422712406  MEMB      35              0.0000000000
      4362        35  DOPC      H18S           15.6374302052       11.8572001978       -2.8514885833  MEMB      35              0.0000000000
      4363        35  DOPC      H18T           16.4662813723       13.2073935173       -3.5187228797  MEMB      35              0.0000000000
      4364        35  DOPC      C33            24.4687686094       14.9503462062       12.4204348485  MEMB      35              0.0000000000
      4365        35  DOPC      H3X            24.8414457495       14.0014983451       11.9786508277  MEMB      35              0.0000000000
      4366        35  DOPC      H3Y            25.3478485684       15.4698664609       12.8673875707  MEMB      35              0.0000000000
      4367        35  DOPC      C34            23.9340081763       15.8939512430       11.3355654805  MEMB      35              0.0000000000
      4368        35  DOPC      H4X            23.6986593130       16.8721888741       11.8040000789  MEMB      35              0.0000000000
      4369        35  DOPC      H4Y            22.9586068334       15.5222058510       10.9765267843  MEMB      35              0.0000000000
      4370        35  DOPC      C35            24.9153015103       16.1081550654       10.1647124920  MEMB      35              0.0000000000
      4371        35  DOPC      H5X            25.9424971867       16.3096091186       10.5347110413  MEMB      35              0.0000000000
      4372        35  DOPC      H5Y            24.5994134332       17.0046401101        9.5871193613  MEMB      35              0.0000000000
      4373        35  DOPC      C36            24.9147512089       14.9599468157        9.1557421022  MEMB      35              0.0000000000
      4374        35  DOPC      H6X            25.4599821559       15.3040825399        8.2476695999  MEMB      35              0.0000000000
      4375        35  DOPC      H6Y            25.4447605626       14.0750432749        9.5687968772  MEMB      35              0.0000000000
      4376        35  DOPC      C37            23.4836592012       14.5507390805        8.7888134121  MEMB      35              0.0000000000
      4377        35  DOPC      H7X            23.0899077815       13.8765138853        9.5839182709  MEMB      35              0.0000000000
      4378        35  DOPC      H7Y            22.8441942205       15.4672614129        8.7976937362  MEMB      35              0.0000000000
      4379        35  DOPC      C38            23.3179736747       13.8926560430        7.4209840433  MEMB      35              0.0000000000
      4380        35  DOPC      H8X            23.0816049371       14.7041041412        6.7189763068  MEMB      35              0.0000000000
      4381        35  DOPC      H8Y            22.4278578343       13.2267905155        7.4684059724  MEMB      35              0.0000000000
      4382        35  DOPC      C39            24.5198918570       13.1457708386        6.9308888591  MEMB      35              0.0000000000
      4383        35  DOPC      H9X            24.7152312012       12.2232203080        7.4863335710  MEMB      35              0.0000000000
      4384        35  DOPC      C310           25.3305128523       13.5030047716        5.9180669482  MEMB      35              0.0000000000
      4385        35  DOPC      H10X           26.1321692992       12.8107659841        5.6253897946  MEMB      35              0.0000000000
      4386        35  DOPC      C311           25.2250611890       14.7250862848        5.0332108699  MEMB      35              0.0000000000
      4387        35  DOPC      H11X           26.0752512268       15.4201787998        5.2158606103  MEMB      35              0.0000000000
      4388        35  DOPC      H11Y           24.2894679416       15.3044447052        5.1914760083  MEMB      35              0.0000000000
      4389        35  DOPC      C312           25.2679126901       14.2893653216        3.5627110959  MEMB      35              0.0000000000
      4390        35  DOPC      H12X           26.2508981263       13.8033422812        3.3605162709  MEMB      35              0.0000000000
      4391        35  DOPC      H12Y           25.1992011807       15.1780589673        2.8948819194  MEMB      35              0.0000000000
      4392        35  DOPC      C313           24.1524280472       13.3123820764        3.1889056352  MEMB      35              0.0000000000
      4393        35  DOPC      H13X           24.0286569598       12.5149931813        3.9555098473  MEMB      35              0.0000000000
      4394        35  DOPC      H13Y           23.1802076010       13.8327607613        3.0922683477  MEMB      35              0.0000000000
      4395        35  DOPC      C314           24.4689807429       12.6149642148        1.8826227549  MEMB      35              0.0000000000
      4396        35  DOPC      H14X           25.5488446728       12.3438827305        1.8458361413  MEMB      35              0.0000000000
      4397        35  DOPC      H14Y           23.8791774549       11.6874106340        1.8560854479  MEMB      35              0.0000000000
      4398        35  DOPC      C315           24.0888097427       13.4405863259        0.6677162540  MEMB      35              0.0000000000
      4399        35  DOPC      H15X           24.7854912541       13.0901977179       -0.1257894257  MEMB      35              0.0000000000
      4400        35  DOPC      H15Y           24.2792403975       14.5219039128        0.8402851806  MEMB      35              0.0000000000
      4401        35  DOPC      C316           22.6333516695       13.2329282485        0.2236140690  MEMB      35              0.0000000000
      4402        35  DOPC      H16X           22.4529446737       12.1451804070        0.0638154809  MEMB      35              0.0000000000
      4403        35  DOPC      H16Y           21.9245954618       13.5671619594        1.0145533898  MEMB      35              0.0000000000
      4404        35  DOPC      C317           22.3727392692       13.9699480788       -1.0886786033  MEMB      35              0.0000000000
      4405        35  DOPC      H17X           21.3865602886       13.7014435365       -1.5015183932  MEMB      35              0.0000000000
      4406        35  DOPC      H17Y           22.3272388320       15.0608500338       -0.8869945677  MEMB      35              0.0000000000
      4407        35  DOPC      C318           23.4314348838       13.6379302835       -2.1429454174  MEMB      35              0.0000000000
      4408        35  DOPC      H18X           23.1432668615       14.0209575198       -3.1410109936  MEMB      35              0.0000000000
      4409        35  DOPC      H18Y           24.4128464255       14.0789383438       -1.8844038726  MEMB      35              0.0000000000
      4410        35  DOPC      H18Z           23.5461392704       12.5332214481       -2.2048726207  MEMB      35              0.0000000000
      4411        36  CHL1      C3             22.1738045873      -13.6830824653       17.4812540417  MEMB      36              0.0000000000
      4412        36  CHL1      H3             21.2802200115      -14.0809157543       16.9448189315  MEMB      36              0.0000000000
      4413        36  CHL1      O3             22.0673026942      -14.0415129469       18.8423117970  MEMB      36              0.0000000000
      4414        36  CHL1      H3'            21.2770475158      -13.5787087064       19.1661472380  MEMB      36              0.0000000000
      4415        36  CHL1      C4             23.4535166176      -14.3081853495       16.9364766032  MEMB      36              0.0000000000
      4416        36  CHL1      H4A            24.3307116646      -13.8713083092       17.4600904059  MEMB      36              0.0000000000
      4417        36  CHL1      H4B            23.4449410520      -15.3970605519       17.1738914034  MEMB      36              0.0000000000
      4418        36  CHL1      C5             23.5383336197      -14.0440633786       15.4570216547  MEMB      36              0.0000000000
      4419        36  CHL1      C6             23.5878992175      -15.0745012271       14.6050570209  MEMB      36              0.0000000000
      4420        36  CHL1      H6             23.6332440816      -16.1045825220       14.9846978531  MEMB      36              0.0000000000
      4421        36  CHL1      C7             23.6434087191      -14.9128147565       13.1234056954  MEMB      36              0.0000000000
      4422        36  CHL1      H7A            24.3946656282      -15.5987861120       12.6759539016  MEMB      36              0.0000000000
      4423        36  CHL1      H7B            22.6392798355      -15.1754317247       12.7258391008  MEMB      36              0.0000000000
      4424        36  CHL1      C8             23.9074995463      -13.4637038521       12.6686053908  MEMB      36              0.0000000000
      4425        36  CHL1      H8             24.9862010412      -13.2290614157       12.7896982969  MEMB      36              0.0000000000
      4426        36  CHL1      C14            23.5369615201      -13.3770904551       11.2060439571  MEMB      36              0.0000000000
      4427        36  CHL1      H14            22.4638752466      -13.7010275934       11.1430031619  MEMB      36              0.0000000000
      4428        36  CHL1      C15            24.2961728552      -14.3005404461       10.2347201476  MEMB      36              0.0000000000
      4429        36  CHL1      H15A           25.3876357289      -14.2336410655       10.4342729916  MEMB      36              0.0000000000
      4430        36  CHL1      H15B           23.9766580642      -15.3580426356       10.3258362699  MEMB      36              0.0000000000
      4431        36  CHL1      C16            23.9664108017      -13.7023809970        8.8621624432  MEMB      36              0.0000000000
      4432        36  CHL1      H16A           24.9036382498      -13.5303323154        8.2935182847  MEMB      36              0.0000000000
      4433        36  CHL1      H16B           23.3177939847      -14.3918265981        8.2837347858  MEMB      36              0.0000000000
      4434        36  CHL1      C17            23.2237111079      -12.3558998061        9.1511877625  MEMB      36              0.0000000000
      4435        36  CHL1      H17            22.1334624639      -12.6004256841        9.1655019073  MEMB      36              0.0000000000
      4436        36  CHL1      C13            23.5712135752      -11.9850567623       10.6051725023  MEMB      36              0.0000000000
      4437        36  CHL1      C18            24.9994320943      -11.3857303436       10.6218117949  MEMB      36              0.0000000000
      4438        36  CHL1      H18A           24.9597765017      -10.3302137063       10.2798278578  MEMB      36              0.0000000000
      4439        36  CHL1      H18B           25.4251087204      -11.3964066079       11.6428600945  MEMB      36              0.0000000000
      4440        36  CHL1      H18C           25.6825013452      -11.9432118385        9.9509208158  MEMB      36              0.0000000000
      4441        36  CHL1      C12            22.5889428277      -11.1049192013       11.4091359513  MEMB      36              0.0000000000
      4442        36  CHL1      H12A           22.5853953654      -10.0614566855       11.0439324107  MEMB      36              0.0000000000
      4443        36  CHL1      H12B           21.5580799784      -11.5069691779       11.3029849015  MEMB      36              0.0000000000
      4444        36  CHL1      C11            22.9694957486      -11.0754496840       12.9011740763  MEMB      36              0.0000000000
      4445        36  CHL1      H11A           23.9390627687      -10.5496003782       13.0094465583  MEMB      36              0.0000000000
      4446        36  CHL1      H11B           22.2040928701      -10.4795080675       13.4431871388  MEMB      36              0.0000000000
      4447        36  CHL1      C9             23.0570413642      -12.5021144583       13.5048831464  MEMB      36              0.0000000000
      4448        36  CHL1      H9             22.0123256519      -12.8981501390       13.4149737332  MEMB      36              0.0000000000
      4449        36  CHL1      C10            23.4076076570      -12.5659887185       15.0156843609  MEMB      36              0.0000000000
      4450        36  CHL1      C19            24.7816796646      -11.8902557499       15.2619824809  MEMB      36              0.0000000000
      4451        36  CHL1      H19A           25.5799596381      -12.3982443386       14.6835546398  MEMB      36              0.0000000000
      4452        36  CHL1      H19B           24.7589935435      -10.8268617473       14.9537181598  MEMB      36              0.0000000000
      4453        36  CHL1      H19C           25.0571059493      -11.9259011617       16.3351153277  MEMB      36              0.0000000000
      4454        36  CHL1      C1             22.3128917904      -11.7982283922       15.8216445312  MEMB      36              0.0000000000
      4455        36  CHL1      H1A            22.4979917372      -10.7075225486       15.7158503436  MEMB      36              0.0000000000
      4456        36  CHL1      H1B            21.3248670968      -12.0141399688       15.3583799413  MEMB      36              0.0000000000
      4457        36  CHL1      C2             22.2331906914      -12.1606374812       17.3172047934  MEMB      36              0.0000000000
      4458        36  CHL1      H2A            21.3474198889      -11.6731738218       17.7710373444  MEMB      36              0.0000000000
      4459        36  CHL1      H2B            23.1399570905      -11.7824278916       17.8397443038  MEMB      36              0.0000000000
      4460        36  CHL1      C20            23.4469640925      -11.2893495207        8.0870371697  MEMB      36              0.0000000000
      4461        36  CHL1      H20            24.4995946621      -10.9226575099        8.1110513218  MEMB      36              0.0000000000
      4462        36  CHL1      C21            22.5212224180      -10.1196859913        8.4071911564  MEMB      36              0.0000000000
      4463        36  CHL1      H21A           22.9745823057       -9.4203772364        9.1292297083  MEMB      36              0.0000000000
      4464        36  CHL1      H21B           21.5872023927      -10.4933869107        8.8668030955  MEMB      36              0.0000000000
      4465        36  CHL1      H21C           22.2827128598       -9.5534941255        7.4865459207  MEMB      36              0.0000000000
      4466        36  CHL1      C22            23.1860936737      -11.7704661234        6.6422011204  MEMB      36              0.0000000000
      4467        36  CHL1      H22A           23.1832995349      -10.8785499934        5.9746977533  MEMB      36              0.0000000000
      4468        36  CHL1      H22B           24.0364147243      -12.4115824814        6.3233090658  MEMB      36              0.0000000000
      4469        36  CHL1      C23            21.8755742930      -12.5390676064        6.4208328837  MEMB      36              0.0000000000
      4470        36  CHL1      H23A           21.7784533376      -13.3599932206        7.1617892563  MEMB      36              0.0000000000
      4471        36  CHL1      H23B           21.0090478910      -11.8623899531        6.5658266111  MEMB      36              0.0000000000
      4472        36  CHL1      C24            21.8635427992      -13.1754828828        5.0271356394  MEMB      36              0.0000000000
      4473        36  CHL1      H24A           22.1440704469      -12.4093975820        4.2694317895  MEMB      36              0.0000000000
      4474        36  CHL1      H24B           22.6434906255      -13.9684181833        5.0148218405  MEMB      36              0.0000000000
      4475        36  CHL1      C25            20.5287906865      -13.8026130490        4.5930849614  MEMB      36              0.0000000000
      4476        36  CHL1      H25            19.8592044353      -12.9551995788        4.3146795605  MEMB      36              0.0000000000
      4477        36  CHL1      C26            20.7526906040      -14.7084703889        3.3681362584  MEMB      36              0.0000000000
      4478        36  CHL1      H26A           21.5215859637      -15.4743773064        3.6010723282  MEMB      36              0.0000000000
      4479        36  CHL1      H26B           19.8169045600      -15.2420649634        3.0982336239  MEMB      36              0.0000000000
      4480        36  CHL1      H26C           21.0898233380      -14.1122399400        2.4943468217  MEMB      36              0.0000000000
      4481        36  CHL1      C27            19.8142273498      -14.5900882457        5.7008209120  MEMB      36              0.0000000000
      4482        36  CHL1      H27A           19.5504718544      -13.9187343329        6.5463284518  MEMB      36              0.0000000000
      4483        36  CHL1      H27B           18.8711806773      -15.0305445425        5.3102696918  MEMB      36              0.0000000000
      4484        36  CHL1      H27C           20.4659195248      -15.4070596180        6.0734421217  MEMB      36              0.0000000000
      4485        37  DOPC      N             -23.9811507914        0.4234206914       19.4430427443  MEMB      37              0.0000000000
      4486        37  DOPC      C12           -25.3569091617        1.0315704132       19.7145814202  MEMB      37              0.0000000000
      4487        37  DOPC      H12A          -25.8373129383        1.2988415315       18.7783540241  MEMB      37              0.0000000000
      4488        37  DOPC      H12B          -25.2557141196        1.9354569109       20.3086422789  MEMB      37              0.0000000000
      4489        37  DOPC      C13           -24.0200010998       -0.2407780669       18.0994457131  MEMB      37              0.0000000000
      4490        37  DOPC      H13A          -24.1326634367        0.4610207731       17.2881836764  MEMB      37              0.0000000000
      4491        37  DOPC      H13B          -23.1584268720       -0.8657757497       17.9217811117  MEMB      37              0.0000000000
      4492        37  DOPC      H13C          -24.9082504509       -0.8845059888       18.0621735968  MEMB      37              0.0000000000
      4493        37  DOPC      C14           -23.7112802301       -0.6254285817       20.4731947178  MEMB      37              0.0000000000
      4494        37  DOPC      H14A          -23.7235352353       -0.1951022523       21.4676509827  MEMB      37              0.0000000000
      4495        37  DOPC      H14B          -24.5309708961       -1.3453683327       20.4569707507  MEMB      37              0.0000000000
      4496        37  DOPC      H14C          -22.7804878748       -1.1363255853       20.3117810749  MEMB      37              0.0000000000
      4497        37  DOPC      C15           -22.9101334695        1.4616191884       19.5347251822  MEMB      37              0.0000000000
      4498        37  DOPC      H15A          -22.9265241918        1.9176175627       20.5247274217  MEMB      37              0.0000000000
      4499        37  DOPC      H15B          -23.0776363047        2.2376984129       18.8112930994  MEMB      37              0.0000000000
      4500        37  DOPC      H15C          -21.9284856850        1.0220018896       19.3866731514  MEMB      37              0.0000000000
      4501        37  DOPC      C11           -26.3653376060        0.1234488303       20.4499981237  MEMB      37              0.0000000000
      4502        37  DOPC      H11A          -26.0207572594        0.0138340709       21.5062815546  MEMB      37              0.0000000000
      4503        37  DOPC      H11B          -27.3527496664        0.6390732335       20.5337173572  MEMB      37              0.0000000000
      4504        37  DOPC      P             -27.6442224385       -1.5487477738       18.8434245921  MEMB      37              0.0000000000
      4505        37  DOPC      O13           -28.4864309326       -0.3633540863       18.6653377039  MEMB      37              0.0000000000
      4506        37  DOPC      O14           -28.2123458412       -2.7615278234       19.4624656925  MEMB      37              0.0000000000
      4507        37  DOPC      O12           -26.4603462303       -1.1572781924       19.8139769911  MEMB      37              0.0000000000
      4508        37  DOPC      O11           -26.7713579752       -1.8508499502       17.5545648828  MEMB      37              0.0000000000
      4509        37  DOPC      C1            -26.0056417604       -3.0510795597       17.3823797669  MEMB      37              0.0000000000
      4510        37  DOPC      HA            -26.1779886988       -3.7975862105       18.1942252424  MEMB      37              0.0000000000
      4511        37  DOPC      HB            -24.9212092186       -2.8086651209       17.3967144532  MEMB      37              0.0000000000
      4512        37  DOPC      C2            -26.3399457387       -3.7604411135       16.0295847785  MEMB      37              0.0000000000
      4513        37  DOPC      HS            -25.6133583317       -4.5925052537       15.8717144653  MEMB      37              0.0000000000
      4514        37  DOPC      O21           -26.2886487976       -2.8607638996       14.9024428051  MEMB      37              0.0000000000
      4515        37  DOPC      C21           -25.2083779759       -2.1284078927       14.7032231170  MEMB      37              0.0000000000
      4516        37  DOPC      O22           -24.1157682032       -2.2637420532       15.2270607639  MEMB      37              0.0000000000
      4517        37  DOPC      C22           -25.5463876790       -1.1122670155       13.6032283794  MEMB      37              0.0000000000
      4518        37  DOPC      H2R           -26.5842700034       -0.7737788880       13.8092783460  MEMB      37              0.0000000000
      4519        37  DOPC      H2S           -25.5414695972       -1.6352862865       12.6273605296  MEMB      37              0.0000000000
      4520        37  DOPC      C3            -27.7580940150       -4.4266957943       16.1169269866  MEMB      37              0.0000000000
      4521        37  DOPC      HX            -28.4876109569       -3.7246564144       16.5862689643  MEMB      37              0.0000000000
      4522        37  DOPC      HY            -27.6496240824       -5.2774979873       16.8321419075  MEMB      37              0.0000000000
      4523        37  DOPC      O31           -28.1942431244       -4.9470755325       14.8371372472  MEMB      37              0.0000000000
      4524        37  DOPC      C31           -28.8121999107       -4.0947510929       14.0219729431  MEMB      37              0.0000000000
      4525        37  DOPC      O32           -29.3414817685       -3.0450455970       14.3086214946  MEMB      37              0.0000000000
      4526        37  DOPC      C32           -28.6458587729       -4.6435845882       12.6169192678  MEMB      37              0.0000000000
      4527        37  DOPC      H2X           -27.5597615251       -4.5806282465       12.4464912833  MEMB      37              0.0000000000
      4528        37  DOPC      H2Y           -28.9253212431       -5.7073117831       12.6484870450  MEMB      37              0.0000000000
      4529        37  DOPC      C23           -24.6231841697        0.1273501406       13.5286244415  MEMB      37              0.0000000000
      4530        37  DOPC      H3R           -23.6536264434       -0.0941515455       13.0346545634  MEMB      37              0.0000000000
      4531        37  DOPC      H3S           -24.3979311038        0.4537265185       14.5724141458  MEMB      37              0.0000000000
      4532        37  DOPC      C24           -25.3112093159        1.3182997129       12.8421659962  MEMB      37              0.0000000000
      4533        37  DOPC      H4R           -24.9347036325        2.2102383861       13.3823429193  MEMB      37              0.0000000000
      4534        37  DOPC      H4S           -26.4138440672        1.2564233628       12.9832678967  MEMB      37              0.0000000000
      4535        37  DOPC      C25           -25.0025620742        1.5678996068       11.3581022685  MEMB      37              0.0000000000
      4536        37  DOPC      H5R           -23.9984461818        2.0409621868       11.2754445403  MEMB      37              0.0000000000
      4537        37  DOPC      H5S           -25.7306009144        2.3077443509       10.9468866825  MEMB      37              0.0000000000
      4538        37  DOPC      C26           -25.0338624730        0.3243170247       10.4679911523  MEMB      37              0.0000000000
      4539        37  DOPC      H6R           -26.0112716376       -0.1874482292       10.5696946887  MEMB      37              0.0000000000
      4540        37  DOPC      H6S           -24.2385494775       -0.3784733059       10.7989432510  MEMB      37              0.0000000000
      4541        37  DOPC      C27           -24.7771909865        0.7266627568        9.0155985768  MEMB      37              0.0000000000
      4542        37  DOPC      H7R           -23.9320076235        1.4173887077        9.0345423961  MEMB      37              0.0000000000
      4543        37  DOPC      H7S           -25.6515685092        1.2575530809        8.5828002447  MEMB      37              0.0000000000
      4544        37  DOPC      C28           -24.2337182390       -0.3456539421        8.0976551104  MEMB      37              0.0000000000
      4545        37  DOPC      H8R           -23.3497232044       -0.8424935275        8.5559117394  MEMB      37              0.0000000000
      4546        37  DOPC      H8S           -23.9168382248        0.1150466488        7.1365669280  MEMB      37              0.0000000000
      4547        37  DOPC      C29           -25.3379430483       -1.2915459662        7.8499331122  MEMB      37              0.0000000000
      4548        37  DOPC      H9R           -26.3054527644       -0.9934847891        8.2575902148  MEMB      37              0.0000000000
      4549        37  DOPC      C210          -25.1767784448       -2.3899382708        7.1314351388  MEMB      37              0.0000000000
      4550        37  DOPC      H10R          -26.0154243917       -3.0814828051        6.9685688938  MEMB      37              0.0000000000
      4551        37  DOPC      C211          -23.8619576225       -2.7499794152        6.5169190428  MEMB      37              0.0000000000
      4552        37  DOPC      H11R          -23.4211623742       -3.5892654646        7.0923957392  MEMB      37              0.0000000000
      4553        37  DOPC      H11S          -23.1048148206       -1.9349048913        6.5175372085  MEMB      37              0.0000000000
      4554        37  DOPC      C212          -24.1227598297       -3.1564588058        5.0751696534  MEMB      37              0.0000000000
      4555        37  DOPC      H12R          -24.9276384791       -3.9133372711        5.0200074236  MEMB      37              0.0000000000
      4556        37  DOPC      H12S          -23.2158248798       -3.6726535719        4.7353199482  MEMB      37              0.0000000000
      4557        37  DOPC      C213          -24.3042228612       -2.0512443850        4.0378652877  MEMB      37              0.0000000000
      4558        37  DOPC      H13R          -24.7115847929       -2.5411437927        3.1229957926  MEMB      37              0.0000000000
      4559        37  DOPC      H13S          -23.2913663989       -1.6613164116        3.7905577143  MEMB      37              0.0000000000
      4560        37  DOPC      C214          -25.1540890616       -0.8254048728        4.3741878742  MEMB      37              0.0000000000
      4561        37  DOPC      H14R          -24.6123808367       -0.1699449542        5.0859487755  MEMB      37              0.0000000000
      4562        37  DOPC      H14S          -26.1294250306       -1.0652753020        4.8425670169  MEMB      37              0.0000000000
      4563        37  DOPC      C215          -25.4331654070       -0.0841999038        3.0715093763  MEMB      37              0.0000000000
      4564        37  DOPC      H15R          -25.8893995803       -0.8239845894        2.3793413099  MEMB      37              0.0000000000
      4565        37  DOPC      H15S          -24.4661467576        0.2323803712        2.6289087729  MEMB      37              0.0000000000
      4566        37  DOPC      C216          -26.3773739068        1.1018019671        3.2585260628  MEMB      37              0.0000000000
      4567        37  DOPC      H16R          -25.8405893081        1.8997109286        3.8140553552  MEMB      37              0.0000000000
      4568        37  DOPC      H16S          -27.2301381473        0.7598347787        3.8861918419  MEMB      37              0.0000000000
      4569        37  DOPC      C217          -26.9637263476        1.6376795061        1.9488012774  MEMB      37              0.0000000000
      4570        37  DOPC      H17R          -26.1376230429        1.9049167137        1.2521353485  MEMB      37              0.0000000000
      4571        37  DOPC      H17S          -27.5107820780        2.5817235955        2.1683032400  MEMB      37              0.0000000000
      4572        37  DOPC      C218          -27.9289642592        0.6444136050        1.2891385652  MEMB      37              0.0000000000
      4573        37  DOPC      H18R          -28.2152204028        0.9760401159        0.2733699339  MEMB      37              0.0000000000
      4574        37  DOPC      H18S          -28.8433605306        0.5203944311        1.9047346919  MEMB      37              0.0000000000
      4575        37  DOPC      H18T          -27.4573220619       -0.3518461331        1.1688767094  MEMB      37              0.0000000000
      4576        37  DOPC      C33           -29.4584300700       -3.9818365620       11.4788486130  MEMB      37              0.0000000000
      4577        37  DOPC      H3X           -29.9995133435       -3.0742743949       11.8082809054  MEMB      37              0.0000000000
      4578        37  DOPC      H3Y           -30.2213909281       -4.6914609578       11.0860513360  MEMB      37              0.0000000000
      4579        37  DOPC      C34           -28.5594005828       -3.7363355294       10.2929306647  MEMB      37              0.0000000000
      4580        37  DOPC      H4X           -29.0914785892       -3.8301347424        9.3244777517  MEMB      37              0.0000000000
      4581        37  DOPC      H4Y           -27.8937883511       -4.6049610943       10.2899367437  MEMB      37              0.0000000000
      4582        37  DOPC      C35           -27.7935679198       -2.4257000979       10.4322356596  MEMB      37              0.0000000000
      4583        37  DOPC      H5X           -26.9636676124       -2.4113148948        9.6985753192  MEMB      37              0.0000000000
      4584        37  DOPC      H5Y           -27.3338257308       -2.3794425516       11.4440268322  MEMB      37              0.0000000000
      4585        37  DOPC      C36           -28.7158495143       -1.2150897198       10.2415395155  MEMB      37              0.0000000000
      4586        37  DOPC      H6X           -29.4287117062       -1.1787689441       11.0977730529  MEMB      37              0.0000000000
      4587        37  DOPC      H6Y           -28.1363517003       -0.2696747097       10.2619606662  MEMB      37              0.0000000000
      4588        37  DOPC      C37           -29.5409956484       -1.2773663306        8.9492062189  MEMB      37              0.0000000000
      4589        37  DOPC      H7X           -30.1257017788       -2.2132699674        8.9352769282  MEMB      37              0.0000000000
      4590        37  DOPC      H7Y           -30.2870669637       -0.4719252021        8.9900439240  MEMB      37              0.0000000000
      4591        37  DOPC      C38           -28.6876416955       -1.1989262480        7.6747988424  MEMB      37              0.0000000000
      4592        37  DOPC      H8X           -27.9469712966       -2.0168426755        7.7657954342  MEMB      37              0.0000000000
      4593        37  DOPC      H8Y           -28.1296647989       -0.2372206378        7.6882439175  MEMB      37              0.0000000000
      4594        37  DOPC      C39           -29.4271345676       -1.3269549792        6.3713336219  MEMB      37              0.0000000000
      4595        37  DOPC      H9X           -30.1186561454       -0.5045254467        6.1624842936  MEMB      37              0.0000000000
      4596        37  DOPC      C310          -29.3810656268       -2.3632886693        5.5126922379  MEMB      37              0.0000000000
      4597        37  DOPC      H10X          -30.0298489879       -2.3482667334        4.6236895738  MEMB      37              0.0000000000
      4598        37  DOPC      C311          -28.5788835417       -3.6240165521        5.6709595666  MEMB      37              0.0000000000
      4599        37  DOPC      H11X          -29.2383464319       -4.5139725503        5.6053366187  MEMB      37              0.0000000000
      4600        37  DOPC      H11Y          -28.0936178162       -3.6905739855        6.6666687405  MEMB      37              0.0000000000
      4601        37  DOPC      C312          -27.4716062115       -3.7425887503        4.6211270080  MEMB      37              0.0000000000
      4602        37  DOPC      H12X          -26.8418442934       -4.5898354570        4.9822437437  MEMB      37              0.0000000000
      4603        37  DOPC      H12Y          -26.8183364422       -2.8641551333        4.5807266418  MEMB      37              0.0000000000
      4604        37  DOPC      C313          -27.9278013454       -4.1573698845        3.2269982898  MEMB      37              0.0000000000
      4605        37  DOPC      H13X          -27.0523054990       -4.6459285592        2.7359848310  MEMB      37              0.0000000000
      4606        37  DOPC      H13Y          -28.7177576540       -4.9148189393        3.4138462958  MEMB      37              0.0000000000
      4607        37  DOPC      C314          -28.4440287813       -3.1466327081        2.1982282992  MEMB      37              0.0000000000
      4608        37  DOPC      H14X          -29.4414234892       -2.7640702775        2.5013855542  MEMB      37              0.0000000000
      4609        37  DOPC      H14Y          -27.7578484330       -2.2795477571        2.1081543220  MEMB      37              0.0000000000
      4610        37  DOPC      C315          -28.5869120453       -3.8686653570        0.8407553635  MEMB      37              0.0000000000
      4611        37  DOPC      H15X          -27.5746088281       -4.1819257432        0.4929756605  MEMB      37              0.0000000000
      4612        37  DOPC      H15Y          -29.0089502997       -3.1751251707        0.0898162323  MEMB      37              0.0000000000
      4613        37  DOPC      C316          -29.4804808379       -5.1154083920        0.9749246673  MEMB      37              0.0000000000
      4614        37  DOPC      H16X          -28.9747912392       -5.7790182422        1.6861485702  MEMB      37              0.0000000000
      4615        37  DOPC      H16Y          -30.4455518377       -4.8426727465        1.4455467483  MEMB      37              0.0000000000
      4616        37  DOPC      C317          -29.7690670149       -5.9206483457       -0.2913821838  MEMB      37              0.0000000000
      4617        37  DOPC      H17X          -28.8139513140       -6.2933556180       -0.6877401369  MEMB      37              0.0000000000
      4618        37  DOPC      H17Y          -30.4020250018       -6.8067224935       -0.0469837021  MEMB      37              0.0000000000
      4619        37  DOPC      C318          -30.4011404241       -5.1042383835       -1.3988405406  MEMB      37              0.0000000000
      4620        37  DOPC      H18X          -30.5126931714       -5.7088159057       -2.3228269840  MEMB      37              0.0000000000
      4621        37  DOPC      H18Y          -31.3964971787       -4.7363664120       -1.0994086099  MEMB      37              0.0000000000
      4622        37  DOPC      H18Z          -29.7365063498       -4.2437636026       -1.6232537329  MEMB      37              0.0000000000
      4623        38  DOPC      N               1.0663567456      -24.2490422971       18.7434585146  MEMB      38              0.0000000000
      4624        38  DOPC      C12             1.4926538486      -25.3621459657       17.8127563013  MEMB      38              0.0000000000
      4625        38  DOPC      H12A            2.1531645485      -24.9688062885       17.0492576031  MEMB      38              0.0000000000
      4626        38  DOPC      H12B            0.6195418851      -25.7699706471       17.3199148212  MEMB      38              0.0000000000
      4627        38  DOPC      C13             2.2160492644      -23.7066742280       19.5232541283  MEMB      38              0.0000000000
      4628        38  DOPC      H13A            2.9675408894      -23.2563690126       18.8923460391  MEMB      38              0.0000000000
      4629        38  DOPC      H13B            1.8770803880      -22.9483664041       20.2267458912  MEMB      38              0.0000000000
      4630        38  DOPC      H13C            2.6608163714      -24.4960161949       20.1295864608  MEMB      38              0.0000000000
      4631        38  DOPC      C14             0.1002269986      -24.7966861445       19.7493940544  MEMB      38              0.0000000000
      4632        38  DOPC      H14A           -0.1716086796      -24.0615656071       20.4909949573  MEMB      38              0.0000000000
      4633        38  DOPC      H14B           -0.7848539399      -25.1935071181       19.2820660473  MEMB      38              0.0000000000
      4634        38  DOPC      H14C            0.5875465197      -25.6352920072       20.2526453195  MEMB      38              0.0000000000
      4635        38  DOPC      C15             0.4200440196      -23.1382891337       18.0081135185  MEMB      38              0.0000000000
      4636        38  DOPC      H15A            0.1914022091      -22.3291943872       18.6940352563  MEMB      38              0.0000000000
      4637        38  DOPC      H15B           -0.5194580359      -23.4744245706       17.5765336716  MEMB      38              0.0000000000
      4638        38  DOPC      H15C            1.0375838477      -22.7658533993       17.2065644811  MEMB      38              0.0000000000
      4639        38  DOPC      C11             2.2179050006      -26.5570292085       18.4555313476  MEMB      38              0.0000000000
      4640        38  DOPC      H11A            2.5769846103      -27.1819154266       17.5953072558  MEMB      38              0.0000000000
      4641        38  DOPC      H11B            3.1191284148      -26.1743183996       18.9902808554  MEMB      38              0.0000000000
      4642        38  DOPC      P               2.0524693803      -28.7058362850       19.7492665734  MEMB      38              0.0000000000
      4643        38  DOPC      O13             1.2602488399      -29.3577543889       20.8076892509  MEMB      38              0.0000000000
      4644        38  DOPC      O14             3.4731993004      -28.3775505026       20.0415394531  MEMB      38              0.0000000000
      4645        38  DOPC      O12             1.3656660766      -27.3090958735       19.3514846569  MEMB      38              0.0000000000
      4646        38  DOPC      O11             1.8918058349      -29.5405306981       18.3892944933  MEMB      38              0.0000000000
      4647        38  DOPC      C1              0.6862962192      -29.4282193734       17.6007844409  MEMB      38              0.0000000000
      4648        38  DOPC      HA              0.5574275951      -28.3933559555       17.2140517782  MEMB      38              0.0000000000
      4649        38  DOPC      HB             -0.2064722477      -29.6703908573       18.2224357798  MEMB      38              0.0000000000
      4650        38  DOPC      C2              0.6503325567      -30.3695631011       16.3387740305  MEMB      38              0.0000000000
      4651        38  DOPC      HS              0.7665099159      -31.4117330740       16.7160816921  MEMB      38              0.0000000000
      4652        38  DOPC      O21             1.7412171387      -30.0479768715       15.4430687005  MEMB      38              0.0000000000
      4653        38  DOPC      C21             1.8587344010      -30.8119050615       14.3577455000  MEMB      38              0.0000000000
      4654        38  DOPC      O22             1.1823371234      -31.7816356594       14.0781612006  MEMB      38              0.0000000000
      4655        38  DOPC      C22             2.9813852608      -30.2819372832       13.4713676250  MEMB      38              0.0000000000
      4656        38  DOPC      H2R             3.8340297534      -30.9803670281       13.5973920482  MEMB      38              0.0000000000
      4657        38  DOPC      H2S             3.2885161241      -29.2677063741       13.7916147876  MEMB      38              0.0000000000
      4658        38  DOPC      C3             -0.7255203717      -30.2608076929       15.5894935007  MEMB      38              0.0000000000
      4659        38  DOPC      HX             -1.5492034808      -30.2267541738       16.3374525294  MEMB      38              0.0000000000
      4660        38  DOPC      HY             -0.9031607529      -31.1936636150       15.0125624067  MEMB      38              0.0000000000
      4661        38  DOPC      O31            -0.7228082391      -29.1507239184       14.6635097755  MEMB      38              0.0000000000
      4662        38  DOPC      C31            -1.5767385277      -28.1759612426       14.8811524127  MEMB      38              0.0000000000
      4663        38  DOPC      O32            -2.4049132788      -28.1306775342       15.7709074257  MEMB      38              0.0000000000
      4664        38  DOPC      C32            -1.3386437325      -27.0547707556       13.8792899210  MEMB      38              0.0000000000
      4665        38  DOPC      H2X            -0.8797008434      -27.4778094549       12.9624819099  MEMB      38              0.0000000000
      4666        38  DOPC      H2Y            -2.3165737753      -26.6088124806       13.5979030890  MEMB      38              0.0000000000
      4667        38  DOPC      C23             2.5045374247      -30.2928558075       12.0115233578  MEMB      38              0.0000000000
      4668        38  DOPC      H3R             2.3714038323      -31.3533596816       11.7117459559  MEMB      38              0.0000000000
      4669        38  DOPC      H3S             3.2784806988      -29.8580203688       11.3426435983  MEMB      38              0.0000000000
      4670        38  DOPC      C24             1.1734952454      -29.5510485354       11.8194956261  MEMB      38              0.0000000000
      4671        38  DOPC      H4R             1.2455145456      -28.5146512710       12.2146438068  MEMB      38              0.0000000000
      4672        38  DOPC      H4S             0.3563687237      -30.0744347757       12.3654526525  MEMB      38              0.0000000000
      4673        38  DOPC      C25             0.7717201398      -29.4650961826       10.3519174619  MEMB      38              0.0000000000
      4674        38  DOPC      H5R             0.9498412380      -30.4356442791        9.8572631533  MEMB      38              0.0000000000
      4675        38  DOPC      H5S             1.4852246691      -28.7619054159        9.9018282502  MEMB      38              0.0000000000
      4676        38  DOPC      C26            -0.6664765751      -28.9617679017       10.1570520314  MEMB      38              0.0000000000
      4677        38  DOPC      H6R            -1.1866506297      -29.0007833137       11.1379565635  MEMB      38              0.0000000000
      4678        38  DOPC      H6S            -1.2482499179      -29.5899632589        9.4561750462  MEMB      38              0.0000000000
      4679        38  DOPC      C27            -0.6887604868      -27.5489097239        9.5763796378  MEMB      38              0.0000000000
      4680        38  DOPC      H7R            -0.3706554024      -27.6087186356        8.5120252360  MEMB      38              0.0000000000
      4681        38  DOPC      H7S             0.0834368299      -26.9574439714       10.1105870796  MEMB      38              0.0000000000
      4682        38  DOPC      C28            -2.0600142112      -26.8636071844        9.6514407293  MEMB      38              0.0000000000
      4683        38  DOPC      H8R            -2.5458858776      -27.1039807010       10.6221612739  MEMB      38              0.0000000000
      4684        38  DOPC      H8S            -2.7086202739      -27.2866422066        8.8504989619  MEMB      38              0.0000000000
      4685        38  DOPC      C29            -1.8730307678      -25.3720662927        9.5233947390  MEMB      38              0.0000000000
      4686        38  DOPC      H9R            -1.3400563169      -24.9035375753       10.3661103091  MEMB      38              0.0000000000
      4687        38  DOPC      C210           -2.2135258047      -24.6015490684        8.4771187762  MEMB      38              0.0000000000
      4688        38  DOPC      H10R           -1.9968186628      -23.5258205345        8.5217421526  MEMB      38              0.0000000000
      4689        38  DOPC      C211           -2.8586738089      -25.0549041236        7.1982690075  MEMB      38              0.0000000000
      4690        38  DOPC      H11R           -3.3050051329      -24.1878732058        6.6624157677  MEMB      38              0.0000000000
      4691        38  DOPC      H11S           -3.6960927948      -25.7544439902        7.4169308951  MEMB      38              0.0000000000
      4692        38  DOPC      C212           -1.8843345235      -25.7683697799        6.2475463309  MEMB      38              0.0000000000
      4693        38  DOPC      H12R           -2.4774453946      -26.1360878226        5.3796071314  MEMB      38              0.0000000000
      4694        38  DOPC      H12S           -1.4390008061      -26.6629038460        6.7383000070  MEMB      38              0.0000000000
      4695        38  DOPC      C213           -0.7445007074      -24.9023963063        5.6924107104  MEMB      38              0.0000000000
      4696        38  DOPC      H13R            0.0420625234      -24.7908903632        6.4730785985  MEMB      38              0.0000000000
      4697        38  DOPC      H13S           -1.1101148211      -23.9007131655        5.3834251589  MEMB      38              0.0000000000
      4698        38  DOPC      C214           -0.0962536722      -25.6165529626        4.5133218163  MEMB      38              0.0000000000
      4699        38  DOPC      H14R           -0.8828169393      -26.1010672557        3.8980719869  MEMB      38              0.0000000000
      4700        38  DOPC      H14S            0.5166684348      -26.3831381070        4.9950325326  MEMB      38              0.0000000000
      4701        38  DOPC      C215            0.8163973512      -24.7958965660        3.6144595008  MEMB      38              0.0000000000
      4702        38  DOPC      H15R            1.6252415631      -25.4470409213        3.2034076054  MEMB      38              0.0000000000
      4703        38  DOPC      H15S            1.3124194653      -23.9978440951        4.2084858212  MEMB      38              0.0000000000
      4704        38  DOPC      C216            0.0055712050      -24.2340896410        2.4481068388  MEMB      38              0.0000000000
      4705        38  DOPC      H16R           -0.9773953065      -23.8797564504        2.8273147150  MEMB      38              0.0000000000
      4706        38  DOPC      H16S           -0.1816662367      -25.0370423556        1.6980994322  MEMB      38              0.0000000000
      4707        38  DOPC      C217            0.7315148650      -23.0779305749        1.7893645073  MEMB      38              0.0000000000
      4708        38  DOPC      H17R            1.6026479427      -23.5301460601        1.2810297297  MEMB      38              0.0000000000
      4709        38  DOPC      H17S            1.0815005410      -22.3997777245        2.5952211388  MEMB      38              0.0000000000
      4710        38  DOPC      C218           -0.0976331549      -22.2787722742        0.7939716592  MEMB      38              0.0000000000
      4711        38  DOPC      H18R           -0.4490280123      -22.9438099046       -0.0229270003  MEMB      38              0.0000000000
      4712        38  DOPC      H18S            0.5115755092      -21.4613579512        0.3504290553  MEMB      38              0.0000000000
      4713        38  DOPC      H18T           -0.9793068681      -21.8305653301        1.3016222436  MEMB      38              0.0000000000
      4714        38  DOPC      C33            -0.4231546626      -25.9930822479       14.5167620020  MEMB      38              0.0000000000
      4715        38  DOPC      H3X             0.4600765204      -26.4940827662       14.9765954675  MEMB      38              0.0000000000
      4716        38  DOPC      H3Y            -0.9796798382      -25.4779773796       15.3311961203  MEMB      38              0.0000000000
      4717        38  DOPC      C34             0.1077286454      -24.9738429844       13.5029671440  MEMB      38              0.0000000000
      4718        38  DOPC      H4X             0.5233251755      -24.1034466017       14.0591901252  MEMB      38              0.0000000000
      4719        38  DOPC      H4Y            -0.7110123298      -24.5989317411       12.8484425386  MEMB      38              0.0000000000
      4720        38  DOPC      C35             1.2178035435      -25.5756049955       12.6377645590  MEMB      38              0.0000000000
      4721        38  DOPC      H5X             0.7740872927      -26.3015856901       11.9251160323  MEMB      38              0.0000000000
      4722        38  DOPC      H5Y             1.9188502140      -26.1426631676       13.2894107511  MEMB      38              0.0000000000
      4723        38  DOPC      C36             2.0098427845      -24.5115811231       11.8744748723  MEMB      38              0.0000000000
      4724        38  DOPC      H6X             1.3696519003      -24.0856223971       11.0695426522  MEMB      38              0.0000000000
      4725        38  DOPC      H6Y             2.2705868839      -23.6825729472       12.5690008057  MEMB      38              0.0000000000
      4726        38  DOPC      C37             3.3131278999      -25.0493021051       11.2587663210  MEMB      38              0.0000000000
      4727        38  DOPC      H7X             3.8866436668      -24.1810519842       10.8605511873  MEMB      38              0.0000000000
      4728        38  DOPC      H7Y             3.9290184587      -25.5374847510       12.0466727258  MEMB      38              0.0000000000
      4729        38  DOPC      C38             3.0539818420      -26.0528849318       10.1257785213  MEMB      38              0.0000000000
      4730        38  DOPC      H8X             2.2246597102      -25.6380959096        9.5084932264  MEMB      38              0.0000000000
      4731        38  DOPC      H8Y             2.6686294093      -26.9961539480       10.5736232538  MEMB      38              0.0000000000
      4732        38  DOPC      C39             4.2828767374      -26.3323974564        9.2906069167  MEMB      38              0.0000000000
      4733        38  DOPC      H9X             5.2177421579      -26.4471953570        9.8512295178  MEMB      38              0.0000000000
      4734        38  DOPC      C310            4.2949827419      -26.4920148187        7.9545728456  MEMB      38              0.0000000000
      4735        38  DOPC      H10X            5.2310835123      -26.7717361024        7.4425521201  MEMB      38              0.0000000000
      4736        38  DOPC      C311            3.0552206045      -26.4158545258        7.1022665620  MEMB      38              0.0000000000
      4737        38  DOPC      H11X            3.2827417431      -26.2918158725        6.0238369714  MEMB      38              0.0000000000
      4738        38  DOPC      H11Y            2.4378509000      -25.5327555352        7.3854509294  MEMB      38              0.0000000000
      4739        38  DOPC      C312            2.1987450623      -27.6698035936        7.3457483865  MEMB      38              0.0000000000
      4740        38  DOPC      H12X            1.1771116554      -27.5037996013        6.9474632565  MEMB      38              0.0000000000
      4741        38  DOPC      H12Y            2.0587789982      -27.7626092761        8.4308247140  MEMB      38              0.0000000000
      4742        38  DOPC      C313            2.7686479565      -28.9903349718        6.7993450489  MEMB      38              0.0000000000
      4743        38  DOPC      H13X            3.6662231284      -29.2855075981        7.3837579493  MEMB      38              0.0000000000
      4744        38  DOPC      H13Y            2.0051922112      -29.7868718537        6.9434281034  MEMB      38              0.0000000000
      4745        38  DOPC      C314            3.1427696470      -28.9043159125        5.3184949828  MEMB      38              0.0000000000
      4746        38  DOPC      H14X            3.9290501844      -28.1246910475        5.2108708070  MEMB      38              0.0000000000
      4747        38  DOPC      H14Y            3.5911801353      -29.8393611551        4.9355309886  MEMB      38              0.0000000000
      4748        38  DOPC      C315            1.9540208499      -28.5293199109        4.4354221436  MEMB      38              0.0000000000
      4749        38  DOPC      H15X            2.3295560866      -27.7714977186        3.7193244810  MEMB      38              0.0000000000
      4750        38  DOPC      H15Y            1.1566616470      -28.1002644661        5.0519711407  MEMB      38              0.0000000000
      4751        38  DOPC      C316            1.2907093800      -29.7021588263        3.7241436006  MEMB      38              0.0000000000
      4752        38  DOPC      H16X            2.0670669618      -30.2221997582        3.1377096893  MEMB      38              0.0000000000
      4753        38  DOPC      H16Y            0.9480154518      -30.4125908945        4.4981059000  MEMB      38              0.0000000000
      4754        38  DOPC      C317            0.0999908003      -29.3618867839        2.8038042593  MEMB      38              0.0000000000
      4755        38  DOPC      H17X            0.0266035675      -30.1987170691        2.0693953186  MEMB      38              0.0000000000
      4756        38  DOPC      H17Y           -0.8427738748      -29.3849823090        3.3949624691  MEMB      38              0.0000000000
      4757        38  DOPC      C318            0.1761332960      -28.0305084367        2.0383153876  MEMB      38              0.0000000000
      4758        38  DOPC      H18X           -0.6578340352      -27.3589850056        2.3193459376  MEMB      38              0.0000000000
      4759        38  DOPC      H18Y            1.1245453810      -27.4915409550        2.2081360447  MEMB      38              0.0000000000
      4760        38  DOPC      H18Z            0.1391048685      -28.1843434668        0.9457954911  MEMB      38              0.0000000000
      4761        39  DOPE      N             -25.2116881102        8.5854373365       16.6302309138  MEMB      39              0.0000000000
      4762        39  DOPE      HN1           -24.1835074493        8.5278724422       16.5651066575  MEMB      39              0.0000000000
      4763        39  DOPE      HN2           -25.6399833519        8.7998194462       15.7022784254  MEMB      39              0.0000000000
      4764        39  DOPE      HN3           -25.3900604660        9.4069045724       17.2498724416  MEMB      39              0.0000000000
      4765        39  DOPE      C12           -25.8749767296        7.4017071769       17.2734851747  MEMB      39              0.0000000000
      4766        39  DOPE      H12A          -25.7440357747        6.5224069823       16.6165968897  MEMB      39              0.0000000000
      4767        39  DOPE      H12B          -26.9493863875        7.6263269595       17.3163615490  MEMB      39              0.0000000000
      4768        39  DOPE      C11           -25.3881065247        7.1750791926       18.7152273354  MEMB      39              0.0000000000
      4769        39  DOPE      H11A          -24.4199162846        6.6334557937       18.6645971212  MEMB      39              0.0000000000
      4770        39  DOPE      H11B          -26.1168420744        6.5024608872       19.2304470855  MEMB      39              0.0000000000
      4771        39  DOPE      P             -26.1827533797        8.9664478830       20.5248960282  MEMB      39              0.0000000000
      4772        39  DOPE      O13           -25.8167342891       10.3674305333       20.8403658172  MEMB      39              0.0000000000
      4773        39  DOPE      O14           -26.3023032500        8.0301657412       21.6520777449  MEMB      39              0.0000000000
      4774        39  DOPE      O11           -27.4719742342        8.9842016170       19.6577181188  MEMB      39              0.0000000000
      4775        39  DOPE      O12           -25.1854338361        8.4020890422       19.4197263021  MEMB      39              0.0000000000
      4776        39  DOPE      C1            -28.8020090031        8.8023314788       20.1023821831  MEMB      39              0.0000000000
      4777        39  DOPE      HA            -29.1656286855        9.7302417438       20.6019612038  MEMB      39              0.0000000000
      4778        39  DOPE      HB            -28.8912198135        7.9467140306       20.8110464799  MEMB      39              0.0000000000
      4779        39  DOPE      C2            -29.6757390495        8.5361673259       18.8566764077  MEMB      39              0.0000000000
      4780        39  DOPE      HS            -30.6912616932        8.1979038102       19.1739480175  MEMB      39              0.0000000000
      4781        39  DOPE      O21           -29.0495527764        7.6079092756       17.9671226923  MEMB      39              0.0000000000
      4782        39  DOPE      C21           -29.5450649409        6.4075450938       17.8681163858  MEMB      39              0.0000000000
      4783        39  DOPE      O22           -30.3667050569        5.8950346484       18.6065074879  MEMB      39              0.0000000000
      4784        39  DOPE      C22           -28.9448607804        5.7494650452       16.6251451235  MEMB      39              0.0000000000
      4785        39  DOPE      H2R           -29.5950477501        4.8873209875       16.4653474189  MEMB      39              0.0000000000
      4786        39  DOPE      H2S           -27.9284728103        5.3960436579       16.8733379398  MEMB      39              0.0000000000
      4787        39  DOPE      C3            -29.8625186640        9.8407500009       18.0434837065  MEMB      39              0.0000000000
      4788        39  DOPE      HX            -30.6219040570       10.4276292615       18.5982679043  MEMB      39              0.0000000000
      4789        39  DOPE      HY            -30.3135111684        9.5664827239       17.0606527518  MEMB      39              0.0000000000
      4790        39  DOPE      O31           -28.6905414196       10.6881320298       17.8809470665  MEMB      39              0.0000000000
      4791        39  DOPE      C31           -27.8915029544       10.4085140220       16.8832822875  MEMB      39              0.0000000000
      4792        39  DOPE      O32           -27.8633881931        9.4049702050       16.2068918906  MEMB      39              0.0000000000
      4793        39  DOPE      C32           -27.1009844401       11.6353349385       16.4921887772  MEMB      39              0.0000000000
      4794        39  DOPE      H2X           -27.8443077514       12.4437138231       16.3508122404  MEMB      39              0.0000000000
      4795        39  DOPE      H2Y           -26.4238895019       11.9106333954       17.3227781643  MEMB      39              0.0000000000
      4796        39  DOPE      C23           -28.9985793233        6.6074462729       15.3309726472  MEMB      39              0.0000000000
      4797        39  DOPE      H3R           -28.2904076182        7.4356481901       15.4492299543  MEMB      39              0.0000000000
      4798        39  DOPE      H3S           -30.0184537809        7.0294805689       15.1987206005  MEMB      39              0.0000000000
      4799        39  DOPE      C24           -28.5512385342        5.9378605151       14.0237309552  MEMB      39              0.0000000000
      4800        39  DOPE      H4R           -28.5246973038        6.7061335208       13.2163056087  MEMB      39              0.0000000000
      4801        39  DOPE      H4S           -29.2931655749        5.1740567889       13.7128644079  MEMB      39              0.0000000000
      4802        39  DOPE      C25           -27.1680406349        5.3037170503       14.1445577670  MEMB      39              0.0000000000
      4803        39  DOPE      H5R           -27.1545720528        4.6639176059       15.0546122360  MEMB      39              0.0000000000
      4804        39  DOPE      H5S           -26.3862205987        6.0838697240       14.2625346889  MEMB      39              0.0000000000
      4805        39  DOPE      C26           -26.7975304565        4.3634717328       12.9953506225  MEMB      39              0.0000000000
      4806        39  DOPE      H6R           -27.5857295448        3.6155594651       12.7818523386  MEMB      39              0.0000000000
      4807        39  DOPE      H6S           -25.9199465924        3.8321217851       13.4103580435  MEMB      39              0.0000000000
      4808        39  DOPE      C27           -26.2827667672        5.0356339200       11.7226795519  MEMB      39              0.0000000000
      4809        39  DOPE      H7R           -25.4737853548        4.4189087684       11.2711401108  MEMB      39              0.0000000000
      4810        39  DOPE      H7S           -25.8048846092        5.9722627840       12.0640308392  MEMB      39              0.0000000000
      4811        39  DOPE      C28           -27.3374757054        5.3417183779       10.6409313131  MEMB      39              0.0000000000
      4812        39  DOPE      H8R           -26.8141534473        5.9290635877        9.8553012948  MEMB      39              0.0000000000
      4813        39  DOPE      H8S           -28.0801720275        6.0372522716       11.0819486901  MEMB      39              0.0000000000
      4814        39  DOPE      C29           -28.0544386344        4.1546491768       10.0347399888  MEMB      39              0.0000000000
      4815        39  DOPE      H9R           -28.8323062188        3.7183638645       10.6822476181  MEMB      39              0.0000000000
      4816        39  DOPE      C210          -27.7860942904        3.5718036039        8.8442584726  MEMB      39              0.0000000000
      4817        39  DOPE      H10R          -28.3652028478        2.6833677685        8.5406819043  MEMB      39              0.0000000000
      4818        39  DOPE      C211          -26.6950970481        4.0040276922        7.8898133867  MEMB      39              0.0000000000
      4819        39  DOPE      H11R          -25.8717813037        3.2793492142        8.0139581365  MEMB      39              0.0000000000
      4820        39  DOPE      H11S          -26.2893091329        4.9991874478        8.1699787078  MEMB      39              0.0000000000
      4821        39  DOPE      C212          -26.8954546335        4.0596133412        6.3589976453  MEMB      39              0.0000000000
      4822        39  DOPE      H12R          -27.5672491242        4.9080173677        6.1039304680  MEMB      39              0.0000000000
      4823        39  DOPE      H12S          -27.3630295500        3.1168240374        5.9990457794  MEMB      39              0.0000000000
      4824        39  DOPE      C213          -25.5313689785        4.2348060725        5.6477591859  MEMB      39              0.0000000000
      4825        39  DOPE      H13R          -24.9892557744        3.2623399495        5.6650764199  MEMB      39              0.0000000000
      4826        39  DOPE      H13S          -24.9077221099        4.9600498859        6.2198052986  MEMB      39              0.0000000000
      4827        39  DOPE      C214          -25.6481508133        4.7459937755        4.2038110653  MEMB      39              0.0000000000
      4828        39  DOPE      H14R          -25.9030731275        5.8300459547        4.2457593932  MEMB      39              0.0000000000
      4829        39  DOPE      H14S          -26.4810677912        4.2223679113        3.6863631274  MEMB      39              0.0000000000
      4830        39  DOPE      C215          -24.3697916300        4.5828860106        3.3625584320  MEMB      39              0.0000000000
      4831        39  DOPE      H15R          -24.1660603399        3.5103951663        3.1598788005  MEMB      39              0.0000000000
      4832        39  DOPE      H15S          -23.5105192472        5.0107580154        3.9288382253  MEMB      39              0.0000000000
      4833        39  DOPE      C216          -24.4726990263        5.3243875622        2.0278086184  MEMB      39              0.0000000000
      4834        39  DOPE      H16R          -24.8864476885        6.3106576727        2.3227711795  MEMB      39              0.0000000000
      4835        39  DOPE      H16S          -25.2085057807        4.8348881847        1.3538662101  MEMB      39              0.0000000000
      4836        39  DOPE      C217          -23.1376117890        5.5937772963        1.3090590947  MEMB      39              0.0000000000
      4837        39  DOPE      H17R          -22.3835211599        5.8323933249        2.0561221381  MEMB      39              0.0000000000
      4838        39  DOPE      H17S          -23.2407196236        6.5048315716        0.6789333451  MEMB      39              0.0000000000
      4839        39  DOPE      C218          -22.6183165459        4.4769437847        0.4173859294  MEMB      39              0.0000000000
      4840        39  DOPE      H18R          -22.0927617686        3.7078112377        0.9999375436  MEMB      39              0.0000000000
      4841        39  DOPE      H18S          -21.9210641908        4.8557317439       -0.3639321270  MEMB      39              0.0000000000
      4842        39  DOPE      H18T          -23.4993126318        4.0091103680       -0.0586409524  MEMB      39              0.0000000000
      4843        39  DOPE      C33           -26.2979214474       11.4067980392       15.1822556001  MEMB      39              0.0000000000
      4844        39  DOPE      H3X           -25.5892115924       10.5695841244       15.2659795493  MEMB      39              0.0000000000
      4845        39  DOPE      H3Y           -25.6554486701       12.2961435578       15.0234148027  MEMB      39              0.0000000000
      4846        39  DOPE      C34           -27.1256242948       11.1599863350       13.9176172547  MEMB      39              0.0000000000
      4847        39  DOPE      H4X           -27.8059443362       10.2948562418       14.0460446802  MEMB      39              0.0000000000
      4848        39  DOPE      H4Y           -27.7935585919       12.0140161450       13.6757785031  MEMB      39              0.0000000000
      4849        39  DOPE      C35           -26.2440814827       10.8654859758       12.7031796813  MEMB      39              0.0000000000
      4850        39  DOPE      H5X           -25.3184215213       11.4788506833       12.7005026272  MEMB      39              0.0000000000
      4851        39  DOPE      H5Y           -26.8514052138       11.2020514256       11.8398804819  MEMB      39              0.0000000000
      4852        39  DOPE      C36           -25.9301588147        9.3658070377       12.6055936080  MEMB      39              0.0000000000
      4853        39  DOPE      H6X           -26.7755716555        8.7849829980       13.0369198425  MEMB      39              0.0000000000
      4854        39  DOPE      H6Y           -25.0307940390        9.1542075463       13.2311954282  MEMB      39              0.0000000000
      4855        39  DOPE      C37           -25.6544456963        8.8061716073       11.2005686792  MEMB      39              0.0000000000
      4856        39  DOPE      H7X           -24.5820562345        8.9230542357       11.0096399529  MEMB      39              0.0000000000
      4857        39  DOPE      H7Y           -25.8226823869        7.7150791864       11.2049483042  MEMB      39              0.0000000000
      4858        39  DOPE      C38           -26.3709861392        9.4122733573        9.9854404007  MEMB      39              0.0000000000
      4859        39  DOPE      H8X           -25.6386939809        9.3345475148        9.1472918646  MEMB      39              0.0000000000
      4860        39  DOPE      H8Y           -26.5758748675       10.4919861394       10.0752180606  MEMB      39              0.0000000000
      4861        39  DOPE      C39           -27.6355304596        8.6939013806        9.6452534537  MEMB      39              0.0000000000
      4862        39  DOPE      H9X           -28.1823190329        8.2399955860       10.4866697502  MEMB      39              0.0000000000
      4863        39  DOPE      C310          -28.1788461912        8.7059885562        8.4254206472  MEMB      39              0.0000000000
      4864        39  DOPE      H10X          -29.1522322877        8.2155019720        8.2681075941  MEMB      39              0.0000000000
      4865        39  DOPE      C311          -27.6109035826        9.4348443123        7.2361487954  MEMB      39              0.0000000000
      4866        39  DOPE      H11X          -28.0300674598       10.4633130094        7.1516169536  MEMB      39              0.0000000000
      4867        39  DOPE      H11Y          -26.5048369484        9.5432908171        7.2839206871  MEMB      39              0.0000000000
      4868        39  DOPE      C312          -27.9545636238        8.6714821051        5.9676008804  MEMB      39              0.0000000000
      4869        39  DOPE      H12X          -29.0501169297        8.6951820508        5.7688144247  MEMB      39              0.0000000000
      4870        39  DOPE      H12Y          -27.6580082703        7.5995308270        6.0832050506  MEMB      39              0.0000000000
      4871        39  DOPE      C313          -27.1850055152        9.2240446117        4.7710073742  MEMB      39              0.0000000000
      4872        39  DOPE      H13X          -26.0902895623        9.2092183494        4.9553625672  MEMB      39              0.0000000000
      4873        39  DOPE      H13Y          -27.3572669959        8.4711345448        3.9900467936  MEMB      39              0.0000000000
      4874        39  DOPE      C314          -27.6047175313       10.6125672990        4.2493334304  MEMB      39              0.0000000000
      4875        39  DOPE      H14X          -26.9084916737       11.3723406903        4.6661062038  MEMB      39              0.0000000000
      4876        39  DOPE      H14Y          -28.6279505204       10.8842378028        4.5841127927  MEMB      39              0.0000000000
      4877        39  DOPE      C315          -27.5644345715       10.6163416847        2.7102471580  MEMB      39              0.0000000000
      4878        39  DOPE      H15X          -28.5324072118       10.2410803827        2.3314576850  MEMB      39              0.0000000000
      4879        39  DOPE      H15Y          -26.7880161898        9.8865818707        2.4192509146  MEMB      39              0.0000000000
      4880        39  DOPE      C316          -27.2370958265       11.9479222729        2.0299912801  MEMB      39              0.0000000000
      4881        39  DOPE      H16X          -26.1881471421       12.2145076802        2.2686467968  MEMB      39              0.0000000000
      4882        39  DOPE      H16Y          -27.9089929682       12.7172981073        2.4737703495  MEMB      39              0.0000000000
      4883        39  DOPE      C317          -27.4353191923       11.9642444250        0.4965160466  MEMB      39              0.0000000000
      4884        39  DOPE      H17X          -28.1777593108       11.1868389749        0.2099481037  MEMB      39              0.0000000000
      4885        39  DOPE      H17Y          -27.8836295739       12.9541197306        0.2437648966  MEMB      39              0.0000000000
      4886        39  DOPE      C318          -26.1727731141       11.8241489710       -0.3704846348  MEMB      39              0.0000000000
      4887        39  DOPE      H18X          -25.3428732101       12.4375860675        0.0382691188  MEMB      39              0.0000000000
      4888        39  DOPE      H18Y          -25.8283598423       10.7769131659       -0.4381095895  MEMB      39              0.0000000000
      4889        39  DOPE      H18Z          -26.3712405237       12.1583801807       -1.4109287683  MEMB      39              0.0000000000
      4890        40  CHL1      C3            -11.3924489227       25.0210072093       17.0703294204  MEMB      40              0.0000000000
      4891        40  CHL1      H3            -10.3452074127       25.3555253821       16.8926954091  MEMB      40              0.0000000000
      4892        40  CHL1      O3            -11.6115804087       24.9094026737       18.4610483194  MEMB      40              0.0000000000
      4893        40  CHL1      H3'           -11.5553621121       23.9531525173       18.6418584233  MEMB      40              0.0000000000
      4894        40  CHL1      C4            -12.3512365894       26.0307065425       16.3776466287  MEMB      40              0.0000000000
      4895        40  CHL1      H4A           -13.3785787894       25.8983371251       16.7808141509  MEMB      40              0.0000000000
      4896        40  CHL1      H4B           -12.0434848715       27.0485693401       16.7079065987  MEMB      40              0.0000000000
      4897        40  CHL1      C5            -12.3331111887       25.9026212307       14.8538130545  MEMB      40              0.0000000000
      4898        40  CHL1      C6            -12.0997356997       26.9235614066       14.0156054246  MEMB      40              0.0000000000
      4899        40  CHL1      H6            -11.9870049194       27.9411491531       14.4191132781  MEMB      40              0.0000000000
      4900        40  CHL1      C7            -11.9941399896       26.7788541360       12.5131006617  MEMB      40              0.0000000000
      4901        40  CHL1      H7A           -12.4162724018       27.6621575192       11.9895443107  MEMB      40              0.0000000000
      4902        40  CHL1      H7B           -10.9354061364       26.7360919373       12.1985533538  MEMB      40              0.0000000000
      4903        40  CHL1      C8            -12.6264543974       25.4784616531       11.9658004307  MEMB      40              0.0000000000
      4904        40  CHL1      H8            -13.7214565233       25.5838547840       11.9939817540  MEMB      40              0.0000000000
      4905        40  CHL1      C14           -12.1499733228       25.1513027615       10.5606184494  MEMB      40              0.0000000000
      4906        40  CHL1      H14           -11.0983467195       24.7890409472       10.6632283551  MEMB      40              0.0000000000
      4907        40  CHL1      C15           -11.9982131295       26.2780374796        9.5479098284  MEMB      40              0.0000000000
      4908        40  CHL1      H15A          -12.9104342882       26.8968451022        9.5637006770  MEMB      40              0.0000000000
      4909        40  CHL1      H15B          -11.1300266084       26.9274557454        9.7844215706  MEMB      40              0.0000000000
      4910        40  CHL1      C16           -11.7865987945       25.4936037605        8.2438443428  MEMB      40              0.0000000000
      4911        40  CHL1      H16A          -12.2124549924       25.9933257248        7.3744364463  MEMB      40              0.0000000000
      4912        40  CHL1      H16B          -10.6844752173       25.4331366424        8.0851172546  MEMB      40              0.0000000000
      4913        40  CHL1      C17           -12.3198082696       24.0313651962        8.4486733097  MEMB      40              0.0000000000
      4914        40  CHL1      H17           -11.3807112989       23.4366024416        8.4827765759  MEMB      40              0.0000000000
      4915        40  CHL1      C13           -12.9084801092       24.0153435632        9.8767426036  MEMB      40              0.0000000000
      4916        40  CHL1      C18           -14.4204758003       24.3176491387        9.7621313805  MEMB      40              0.0000000000
      4917        40  CHL1      H18A          -14.9700915709       23.4235666313        9.4022599409  MEMB      40              0.0000000000
      4918        40  CHL1      H18B          -14.8859776346       24.5972561935       10.7215492641  MEMB      40              0.0000000000
      4919        40  CHL1      H18C          -14.5789353296       25.1331659217        9.0265393048  MEMB      40              0.0000000000
      4920        40  CHL1      C12           -12.6665365269       22.7470509124       10.6952768096  MEMB      40              0.0000000000
      4921        40  CHL1      H12A          -13.3525295702       21.9441289390       10.3511570632  MEMB      40              0.0000000000
      4922        40  CHL1      H12B          -11.6339865492       22.3924558896       10.5282920938  MEMB      40              0.0000000000
      4923        40  CHL1      C11           -12.8753477710       22.9767570485       12.2069760197  MEMB      40              0.0000000000
      4924        40  CHL1      H11A          -13.9732014802       22.9388248318       12.3603439955  MEMB      40              0.0000000000
      4925        40  CHL1      H11B          -12.4000175819       22.1423093005       12.7511589529  MEMB      40              0.0000000000
      4926        40  CHL1      C9            -12.2705651119       24.2787098243       12.8082645690  MEMB      40              0.0000000000
      4927        40  CHL1      H9            -11.1625013708       24.1814829411       12.7070475609  MEMB      40              0.0000000000
      4928        40  CHL1      C10           -12.5083196927       24.4723415541       14.3244207193  MEMB      40              0.0000000000
      4929        40  CHL1      C19           -13.9803995562       24.1099315835       14.6719329447  MEMB      40              0.0000000000
      4930        40  CHL1      H19A          -14.2613713834       23.0894331469       14.3721991231  MEMB      40              0.0000000000
      4931        40  CHL1      H19B          -14.1783528289       24.1683306703       15.7606170905  MEMB      40              0.0000000000
      4932        40  CHL1      H19C          -14.6816837093       24.8081400154       14.1645290196  MEMB      40              0.0000000000
      4933        40  CHL1      C1            -11.4366436701       23.6084464420       15.0378793506  MEMB      40              0.0000000000
      4934        40  CHL1      H1A           -11.4513623303       22.5732340195       14.6564267235  MEMB      40              0.0000000000
      4935        40  CHL1      H1B           -10.4260459012       24.0068868489       14.7813259992  MEMB      40              0.0000000000
      4936        40  CHL1      C2            -11.5761301505       23.6125736731       16.5485970553  MEMB      40              0.0000000000
      4937        40  CHL1      H2A           -10.8343743422       22.9223832062       17.0061710502  MEMB      40              0.0000000000
      4938        40  CHL1      H2B           -12.5912960121       23.2580986656       16.8335515020  MEMB      40              0.0000000000
      4939        40  CHL1      C20           -13.1961320276       23.3674883895        7.3485914752  MEMB      40              0.0000000000
      4940        40  CHL1      H20           -14.2694438697       23.6316911132        7.4606194306  MEMB      40              0.0000000000
      4941        40  CHL1      C21           -13.0767313063       21.8353228859        7.5137502825  MEMB      40              0.0000000000
      4942        40  CHL1      H21A          -13.7804723574       21.4555830698        8.2799931403  MEMB      40              0.0000000000
      4943        40  CHL1      H21B          -12.0529337512       21.5709193799        7.8326990897  MEMB      40              0.0000000000
      4944        40  CHL1      H21C          -13.2789506167       21.3075178629        6.5593465196  MEMB      40              0.0000000000
      4945        40  CHL1      C22           -12.9275587993       23.7330158262        5.8723977002  MEMB      40              0.0000000000
      4946        40  CHL1      H22A          -13.4549473618       22.9843466189        5.2359344671  MEMB      40              0.0000000000
      4947        40  CHL1      H22B          -13.3833285749       24.7144461633        5.6415491270  MEMB      40              0.0000000000
      4948        40  CHL1      C23           -11.4641654930       23.7283405661        5.4818175923  MEMB      40              0.0000000000
      4949        40  CHL1      H23A          -10.9012692098       24.4642377914        6.0927300052  MEMB      40              0.0000000000
      4950        40  CHL1      H23B          -11.0603438856       22.7168157605        5.7048228954  MEMB      40              0.0000000000
      4951        40  CHL1      C24           -11.2248178613       24.0514707712        4.0053725244  MEMB      40              0.0000000000
      4952        40  CHL1      H24A          -11.7573303100       23.2929469100        3.3871264880  MEMB      40              0.0000000000
      4953        40  CHL1      H24B          -11.6474127518       25.0479667563        3.7594839110  MEMB      40              0.0000000000
      4954        40  CHL1      C25            -9.7123471609       23.9798987010        3.7373163873  MEMB      40              0.0000000000
      4955        40  CHL1      H25            -9.2337966407       24.1290949612        4.7378855051  MEMB      40              0.0000000000
      4956        40  CHL1      C26            -9.3200063992       22.5489360439        3.3430876294  MEMB      40              0.0000000000
      4957        40  CHL1      H26A           -9.8936963621       22.1290110152        2.5020165870  MEMB      40              0.0000000000
      4958        40  CHL1      H26B           -8.2549421744       22.4351438121        3.1310946431  MEMB      40              0.0000000000
      4959        40  CHL1      H26C           -9.4910709047       21.8959970418        4.2066805798  MEMB      40              0.0000000000
      4960        40  CHL1      C27            -9.1263001549       25.1277078488        2.8846270811  MEMB      40              0.0000000000
      4961        40  CHL1      H27A           -8.4354320886       24.7899973012        2.0872528004  MEMB      40              0.0000000000
      4962        40  CHL1      H27B           -9.9230554227       25.7246062542        2.4030814658  MEMB      40              0.0000000000
      4963        40  CHL1      H27C           -8.5451723248       25.8060804302        3.5537095200  MEMB      40              0.0000000000
      4964        41  DOPE      N             -17.7884271403       23.5527722162       20.0484031742  MEMB      41              0.0000000000
      4965        41  DOPE      HN1           -18.4217972682       23.6919960497       20.8605871561  MEMB      41              0.0000000000
      4966        41  DOPE      HN2           -16.9876497228       22.9396009982       20.3303346933  MEMB      41              0.0000000000
      4967        41  DOPE      HN3           -17.5496912340       24.4700831602       19.5989962208  MEMB      41              0.0000000000
      4968        41  DOPE      C12           -18.5556834205       22.7613649634       19.0737982188  MEMB      41              0.0000000000
      4969        41  DOPE      H12A          -18.6231787963       23.3218345844       18.1159516239  MEMB      41              0.0000000000
      4970        41  DOPE      H12B          -19.5662493801       22.6133138161       19.5061219470  MEMB      41              0.0000000000
      4971        41  DOPE      C11           -17.8546365287       21.4279697394       18.9043828342  MEMB      41              0.0000000000
      4972        41  DOPE      H11A          -16.7496810823       21.5194806670       18.8489888658  MEMB      41              0.0000000000
      4973        41  DOPE      H11B          -18.1766817999       21.0954694316       17.8819980359  MEMB      41              0.0000000000
      4974        41  DOPE      P             -18.7053941533       19.0980385465       19.6437403470  MEMB      41              0.0000000000
      4975        41  DOPE      O13           -18.0708455728       18.0620031947       20.4813370775  MEMB      41              0.0000000000
      4976        41  DOPE      O14           -18.6707705242       18.9971760713       18.2019524714  MEMB      41              0.0000000000
      4977        41  DOPE      O11           -20.2446650444       19.2177853034       20.0326049404  MEMB      41              0.0000000000
      4978        41  DOPE      O12           -18.2081944621       20.5576080475       19.9969048433  MEMB      41              0.0000000000
      4979        41  DOPE      C1            -21.0265978621       18.0148248680       20.0906687953  MEMB      41              0.0000000000
      4980        41  DOPE      HA            -21.7601116343       18.1000587335       20.9184133188  MEMB      41              0.0000000000
      4981        41  DOPE      HB            -20.4059770284       17.1350870706       20.3932291409  MEMB      41              0.0000000000
      4982        41  DOPE      C2            -21.8043187303       17.5881371929       18.7847706330  MEMB      41              0.0000000000
      4983        41  DOPE      HS            -22.2680754192       16.6055944305       19.0255896337  MEMB      41              0.0000000000
      4984        41  DOPE      O21           -20.8849398798       17.4394196809       17.6655407463  MEMB      41              0.0000000000
      4985        41  DOPE      C21           -19.8958447880       16.5009208552       17.8054687682  MEMB      41              0.0000000000
      4986        41  DOPE      O22           -19.9107969322       15.6108195698       18.6454198679  MEMB      41              0.0000000000
      4987        41  DOPE      C22           -18.7959714320       16.6741206947       16.7336272305  MEMB      41              0.0000000000
      4988        41  DOPE      H2R           -17.9393788087       17.2417592237       17.1238516827  MEMB      41              0.0000000000
      4989        41  DOPE      H2S           -19.1970758914       17.2911484976       15.9169824389  MEMB      41              0.0000000000
      4990        41  DOPE      C3            -23.0628643283       18.5641624436       18.3648907265  MEMB      41              0.0000000000
      4991        41  DOPE      HX            -23.6129599795       18.8397398273       19.2729538364  MEMB      41              0.0000000000
      4992        41  DOPE      HY            -23.5924374899       17.7687901170       17.8579822524  MEMB      41              0.0000000000
      4993        41  DOPE      O31           -23.0247091609       19.7227803119       17.4834846256  MEMB      41              0.0000000000
      4994        41  DOPE      C31           -23.9943910805       20.1971221565       16.5988133296  MEMB      41              0.0000000000
      4995        41  DOPE      O32           -25.1187022347       19.7417944948       16.5602400865  MEMB      41              0.0000000000
      4996        41  DOPE      C32           -23.5623586771       21.4096239084       15.5157728013  MEMB      41              0.0000000000
      4997        41  DOPE      H2X           -24.5112773198       21.9194758880       15.3033121148  MEMB      41              0.0000000000
      4998        41  DOPE      H2Y           -23.0185579913       21.9743498643       16.1765532400  MEMB      41              0.0000000000
      4999        41  DOPE      C23           -18.1936425992       15.3892093124       16.1798875659  MEMB      41              0.0000000000
      5000        41  DOPE      H3R           -17.5578916057       14.8739276435       16.9229349736  MEMB      41              0.0000000000
      5001        41  DOPE      H3S           -17.5405277462       15.6381783260       15.3143967695  MEMB      41              0.0000000000
      5002        41  DOPE      C24           -19.2593820925       14.5184728243       15.6001006065  MEMB      41              0.0000000000
      5003        41  DOPE      H4R           -19.8632801898       14.0105444581       16.3746519978  MEMB      41              0.0000000000
      5004        41  DOPE      H4S           -18.6852368721       13.7283063724       15.0590682645  MEMB      41              0.0000000000
      5005        41  DOPE      C25           -20.1239453927       15.2872643685       14.5810248204  MEMB      41              0.0000000000
      5006        41  DOPE      H5R           -20.5227681745       16.1817948208       15.0404599907  MEMB      41              0.0000000000
      5007        41  DOPE      H5S           -21.0470392469       14.8160879385       14.2249495925  MEMB      41              0.0000000000
      5008        41  DOPE      C26           -19.3011598835       15.5225131422       13.3270686448  MEMB      41              0.0000000000
      5009        41  DOPE      H6R           -18.3283123293       14.9848973142       13.3855479849  MEMB      41              0.0000000000
      5010        41  DOPE      H6S           -19.0478484754       16.5873172449       13.4194630020  MEMB      41              0.0000000000
      5011        41  DOPE      C27           -20.0096378339       15.1351227505       12.0120419185  MEMB      41              0.0000000000
      5012        41  DOPE      H7R           -20.2750595455       14.0602832935       12.0308107701  MEMB      41              0.0000000000
      5013        41  DOPE      H7S           -19.3195526982       15.2665702446       11.1450977124  MEMB      41              0.0000000000
      5014        41  DOPE      C28           -21.3132627633       15.8955293275       11.7795664395  MEMB      41              0.0000000000
      5015        41  DOPE      H8R           -22.0396123221       15.6952438468       12.5929606140  MEMB      41              0.0000000000
      5016        41  DOPE      H8S           -21.8224006194       15.5197556034       10.8747642197  MEMB      41              0.0000000000
      5017        41  DOPE      C29           -20.9201156565       17.3439090683       11.7105625370  MEMB      41              0.0000000000
      5018        41  DOPE      H9R           -20.3612114999       17.7104575446       12.5828545894  MEMB      41              0.0000000000
      5019        41  DOPE      C210          -21.3333012918       18.2722908193       10.8521370658  MEMB      41              0.0000000000
      5020        41  DOPE      H10R          -20.9224845787       19.2888972439       10.9537656411  MEMB      41              0.0000000000
      5021        41  DOPE      C211          -22.3096202525       18.0359418532        9.7484830587  MEMB      41              0.0000000000
      5022        41  DOPE      H11R          -22.5325642771       19.0024532773        9.2499425802  MEMB      41              0.0000000000
      5023        41  DOPE      H11S          -23.2624048884       17.6923057949       10.2037428572  MEMB      41              0.0000000000
      5024        41  DOPE      C212          -21.7455837376       17.0618316784        8.6938680178  MEMB      41              0.0000000000
      5025        41  DOPE      H12R          -22.5261045892       16.7969031559        7.9562610765  MEMB      41              0.0000000000
      5026        41  DOPE      H12S          -21.3956528213       16.1069065125        9.1285368364  MEMB      41              0.0000000000
      5027        41  DOPE      C213          -20.5513658483       17.6883524236        7.9759782483  MEMB      41              0.0000000000
      5028        41  DOPE      H13R          -19.8311370327       18.0192859957        8.7476300864  MEMB      41              0.0000000000
      5029        41  DOPE      H13S          -20.9121757752       18.5907221215        7.4393259211  MEMB      41              0.0000000000
      5030        41  DOPE      C214          -19.8047623936       16.7792468493        6.9950329673  MEMB      41              0.0000000000
      5031        41  DOPE      H14R          -19.3049580382       15.9432341040        7.5314409431  MEMB      41              0.0000000000
      5032        41  DOPE      H14S          -19.0014423541       17.3952703357        6.5308341275  MEMB      41              0.0000000000
      5033        41  DOPE      C215          -20.7191200640       16.2289431323        5.8961350381  MEMB      41              0.0000000000
      5034        41  DOPE      H15R          -21.5067177283       16.9862804307        5.6787365923  MEMB      41              0.0000000000
      5035        41  DOPE      H15S          -21.2307348942       15.3203412742        6.2822793102  MEMB      41              0.0000000000
      5036        41  DOPE      C216          -19.9751175031       15.9211737187        4.5892912986  MEMB      41              0.0000000000
      5037        41  DOPE      H16R          -18.8782728638       16.0259234183        4.7484414136  MEMB      41              0.0000000000
      5038        41  DOPE      H16S          -20.2814515663       16.6658968347        3.8235448014  MEMB      41              0.0000000000
      5039        41  DOPE      C217          -20.2839280780       14.5436555777        4.0032142328  MEMB      41              0.0000000000
      5040        41  DOPE      H17R          -20.3741941115       13.7978747476        4.8237739164  MEMB      41              0.0000000000
      5041        41  DOPE      H17S          -19.4287276992       14.2348653033        3.3584540554  MEMB      41              0.0000000000
      5042        41  DOPE      C218          -21.5536419169       14.5647635168        3.1497140773  MEMB      41              0.0000000000
      5043        41  DOPE      H18R          -22.4360276788       14.8073347521        3.7808621035  MEMB      41              0.0000000000
      5044        41  DOPE      H18S          -21.7220110213       13.5823284100        2.6619722331  MEMB      41              0.0000000000
      5045        41  DOPE      H18T          -21.4702319778       15.3429570178        2.3591894891  MEMB      41              0.0000000000
      5046        41  DOPE      C33           -22.5533506834       21.5847651266       14.1844572497  MEMB      41              0.0000000000
      5047        41  DOPE      H3X           -23.2737361657       21.8139676384       13.3693415857  MEMB      41              0.0000000000
      5048        41  DOPE      H3Y           -22.0133777312       20.7116072011       13.9042659022  MEMB      41              0.0000000000
      5049        41  DOPE      C34           -21.3058321050       22.5809212355       13.9464871159  MEMB      41              0.0000000000
      5050        41  DOPE      H4X           -21.2825595347       22.7406586872       12.8438377420  MEMB      41              0.0000000000
      5051        41  DOPE      H4Y           -21.4745019053       23.5901739699       14.3145752699  MEMB      41              0.0000000000
      5052        41  DOPE      C35           -19.7775139239       22.2617507562       14.2292174236  MEMB      41              0.0000000000
      5053        41  DOPE      H5X           -19.5651057786       21.9395095263       15.2559473338  MEMB      41              0.0000000000
      5054        41  DOPE      H5Y           -19.2280851582       23.2318837039       14.1478862898  MEMB      41              0.0000000000
      5055        41  DOPE      C36           -18.9764040682       21.2774353753       13.3308958742  MEMB      41              0.0000000000
      5056        41  DOPE      H6X           -18.8587361191       21.7018453080       12.3144244731  MEMB      41              0.0000000000
      5057        41  DOPE      H6Y           -19.5201285283       20.3127636370       13.2541501541  MEMB      41              0.0000000000
      5058        41  DOPE      C37           -17.5657017071       20.9651981001       13.9159896109  MEMB      41              0.0000000000
      5059        41  DOPE      H7X           -16.9813470361       21.9091380022       13.9855497622  MEMB      41              0.0000000000
      5060        41  DOPE      H7Y           -17.6581831612       20.5828521527       14.9573917283  MEMB      41              0.0000000000
      5061        41  DOPE      C38           -16.7016309112       19.9465731989       13.1373330214  MEMB      41              0.0000000000
      5062        41  DOPE      H8X           -15.7384045406       19.8792047434       13.6873611707  MEMB      41              0.0000000000
      5063        41  DOPE      H8Y           -16.4664262219       20.4067536764       12.1608015253  MEMB      41              0.0000000000
      5064        41  DOPE      C39           -17.1725433864       18.5221583952       12.9975107921  MEMB      41              0.0000000000
      5065        41  DOPE      H9X           -17.2014866233       17.9529973499       13.9426255767  MEMB      41              0.0000000000
      5066        41  DOPE      C310          -17.6343227693       17.9122510115       11.8947861393  MEMB      41              0.0000000000
      5067        41  DOPE      H10X          -17.7596001074       16.8203685508       11.9151054188  MEMB      41              0.0000000000
      5068        41  DOPE      C311          -17.8227935152       18.4524799998       10.5201130884  MEMB      41              0.0000000000
      5069        41  DOPE      H11X          -18.1771985031       17.6075579555        9.8849084691  MEMB      41              0.0000000000
      5070        41  DOPE      H11Y          -18.6230143538       19.2247879217       10.5060328519  MEMB      41              0.0000000000
      5071        41  DOPE      C312          -16.5459984939       18.9900946745        9.8956777246  MEMB      41              0.0000000000
      5072        41  DOPE      H12X          -15.7004707507       18.3113519803       10.1573078632  MEMB      41              0.0000000000
      5073        41  DOPE      H12Y          -16.3052377466       20.0078105364       10.2584829648  MEMB      41              0.0000000000
      5074        41  DOPE      C313          -16.6762954025       19.0519574739        8.3878242703  MEMB      41              0.0000000000
      5075        41  DOPE      H13X          -15.7062690097       19.3878652618        7.9545488503  MEMB      41              0.0000000000
      5076        41  DOPE      H13Y          -16.8943013965       18.0232738082        8.0102637533  MEMB      41              0.0000000000
      5077        41  DOPE      C314          -17.7521013746       19.9894780940        7.8653879351  MEMB      41              0.0000000000
      5078        41  DOPE      H14X          -17.6155454032       21.0200005641        8.2562096626  MEMB      41              0.0000000000
      5079        41  DOPE      H14Y          -18.7591634964       19.6486559192        8.1770536088  MEMB      41              0.0000000000
      5080        41  DOPE      C315          -17.6177145310       19.9491039583        6.3542756739  MEMB      41              0.0000000000
      5081        41  DOPE      H15X          -17.4238985708       18.8919696969        6.0529939771  MEMB      41              0.0000000000
      5082        41  DOPE      H15Y          -16.7215756841       20.5377950713        6.0554336792  MEMB      41              0.0000000000
      5083        41  DOPE      C316          -18.8404602683       20.4225738809        5.5948861891  MEMB      41              0.0000000000
      5084        41  DOPE      H16X          -19.0623597173       21.4801584879        5.8590863419  MEMB      41              0.0000000000
      5085        41  DOPE      H16Y          -19.7318172344       19.8080654037        5.8522237622  MEMB      41              0.0000000000
      5086        41  DOPE      C317          -18.5536654646       20.2942836640        4.1064978377  MEMB      41              0.0000000000
      5087        41  DOPE      H17X          -19.2640099362       20.9574201231        3.5812081009  MEMB      41              0.0000000000
      5088        41  DOPE      H17Y          -17.5163442672       20.6445538183        3.9018665509  MEMB      41              0.0000000000
      5089        41  DOPE      C318          -18.7263118161       18.8845481894        3.5601143817  MEMB      41              0.0000000000
      5090        41  DOPE      H18X          -18.0780976420       18.1617790101        4.0992059802  MEMB      41              0.0000000000
      5091        41  DOPE      H18Y          -19.7887424950       18.5942466051        3.6830848135  MEMB      41              0.0000000000
      5092        41  DOPE      H18Z          -18.4789164306       18.8380978217        2.4818395030  MEMB      41              0.0000000000
      5093        42  DOPE      N             -23.7226309431       -8.3069200423       21.5950754946  MEMB      42              0.0000000000
      5094        42  DOPE      HN1           -23.4957684256       -8.2941202059       22.6124864573  MEMB      42              0.0000000000
      5095        42  DOPE      HN2           -23.3806161561       -7.4607848702       21.1012505522  MEMB      42              0.0000000000
      5096        42  DOPE      HN3           -24.7638592049       -8.3067776412       21.4182709539  MEMB      42              0.0000000000
      5097        42  DOPE      C12           -23.1465204065       -9.4598998325       20.8043103348  MEMB      42              0.0000000000
      5098        42  DOPE      H12A          -23.4306205792      -10.4088028808       21.3007999626  MEMB      42              0.0000000000
      5099        42  DOPE      H12B          -22.0443032264       -9.3674575977       20.7806541776  MEMB      42              0.0000000000
      5100        42  DOPE      C11           -23.7411444524       -9.4118070127       19.3955262167  MEMB      42              0.0000000000
      5101        42  DOPE      H11A          -23.6790123852      -10.4136920442       18.9072038833  MEMB      42              0.0000000000
      5102        42  DOPE      H11B          -23.1697634350       -8.7319615693       18.7319743021  MEMB      42              0.0000000000
      5103        42  DOPE      P             -25.9332339903       -8.6673536952       18.2260760846  MEMB      42              0.0000000000
      5104        42  DOPE      O13           -25.1783089845       -7.6100043345       17.5297473342  MEMB      42              0.0000000000
      5105        42  DOPE      O14           -27.3269029354       -8.4703069521       18.6349915150  MEMB      42              0.0000000000
      5106        42  DOPE      O11           -25.7398895543      -10.0242950144       17.4740185067  MEMB      42              0.0000000000
      5107        42  DOPE      O12           -25.0884092049       -8.9573234715       19.5224009285  MEMB      42              0.0000000000
      5108        42  DOPE      C1            -26.2064109214      -11.1897436755       18.1810235018  MEMB      42              0.0000000000
      5109        42  DOPE      HA            -27.0787115865      -10.9979704773       18.8662307287  MEMB      42              0.0000000000
      5110        42  DOPE      HB            -25.3967511828      -11.6241333313       18.8059424253  MEMB      42              0.0000000000
      5111        42  DOPE      C2            -26.6591509305      -12.2706523237       17.1888383229  MEMB      42              0.0000000000
      5112        42  DOPE      HS            -26.7638678844      -13.2143939750       17.7775979814  MEMB      42              0.0000000000
      5113        42  DOPE      O21           -25.7870643188      -12.4919341952       16.0657787913  MEMB      42              0.0000000000
      5114        42  DOPE      C21           -24.5250264068      -12.6174898330       16.1820522866  MEMB      42              0.0000000000
      5115        42  DOPE      O22           -23.8762350569      -12.6756489866       17.2258750917  MEMB      42              0.0000000000
      5116        42  DOPE      C22           -23.8490405860      -12.6561124118       14.7481494380  MEMB      42              0.0000000000
      5117        42  DOPE      H2R           -22.8686867432      -12.5492162960       15.2103320992  MEMB      42              0.0000000000
      5118        42  DOPE      H2S           -24.0381615841      -11.7351482541       14.1812177078  MEMB      42              0.0000000000
      5119        42  DOPE      C3            -28.0585608348      -11.9574315425       16.5999900900  MEMB      42              0.0000000000
      5120        42  DOPE      HX            -28.8021217013      -12.0442135137       17.4247698230  MEMB      42              0.0000000000
      5121        42  DOPE      HY            -28.2509702750      -12.7740362255       15.8701906741  MEMB      42              0.0000000000
      5122        42  DOPE      O31           -28.1982141814      -10.6525397961       15.9828445584  MEMB      42              0.0000000000
      5123        42  DOPE      C31           -27.5258578565      -10.4238997787       14.8723652205  MEMB      42              0.0000000000
      5124        42  DOPE      O32           -26.8842597296      -11.2221120944       14.2198734329  MEMB      42              0.0000000000
      5125        42  DOPE      C32           -27.8130427998       -9.0430558469       14.3163701316  MEMB      42              0.0000000000
      5126        42  DOPE      H2X           -28.9065926235       -8.9877426218       14.1255260745  MEMB      42              0.0000000000
      5127        42  DOPE      H2Y           -27.5389582250       -8.2630677519       15.0563934722  MEMB      42              0.0000000000
      5128        42  DOPE      C23           -23.4973743007      -13.9457963462       13.8838134422  MEMB      42              0.0000000000
      5129        42  DOPE      H3R           -24.0901658815      -14.7827647144       14.2526419826  MEMB      42              0.0000000000
      5130        42  DOPE      H3S           -22.4397379682      -14.2058148768       14.1229191673  MEMB      42              0.0000000000
      5131        42  DOPE      C24           -23.5084826748      -14.0148577516       12.3155303217  MEMB      42              0.0000000000
      5132        42  DOPE      H4R           -24.1874914287      -14.7788949034       11.8905092678  MEMB      42              0.0000000000
      5133        42  DOPE      H4S           -22.5254836415      -14.4643021556       12.0291854504  MEMB      42              0.0000000000
      5134        42  DOPE      C25           -23.6139574650      -12.6979074738       11.5524114482  MEMB      42              0.0000000000
      5135        42  DOPE      H5R           -22.9585671821      -12.7568830527       10.6499973157  MEMB      42              0.0000000000
      5136        42  DOPE      H5S           -23.2310964337      -11.9038425391       12.1995718667  MEMB      42              0.0000000000
      5137        42  DOPE      C26           -24.9924195655      -12.2496054675       11.0647459850  MEMB      42              0.0000000000
      5138        42  DOPE      H6R           -25.4710492417      -11.6071839715       11.8332949470  MEMB      42              0.0000000000
      5139        42  DOPE      H6S           -25.5952413448      -13.1525358239       10.9852302467  MEMB      42              0.0000000000
      5140        42  DOPE      C27           -24.8219164044      -11.5565437890        9.6997435453  MEMB      42              0.0000000000
      5141        42  DOPE      H7R           -24.4527455231      -12.2924524723        8.9557424579  MEMB      42              0.0000000000
      5142        42  DOPE      H7S           -23.9854227203      -10.8396843357        9.8849144633  MEMB      42              0.0000000000
      5143        42  DOPE      C28           -25.9670291060      -10.7024646356        9.0947779575  MEMB      42              0.0000000000
      5144        42  DOPE      H8R           -25.4537953529      -10.0785483860        8.3259298517  MEMB      42              0.0000000000
      5145        42  DOPE      H8S           -26.2882623985       -9.9979174032        9.8878043652  MEMB      42              0.0000000000
      5146        42  DOPE      C29           -27.2095694025      -11.3027932445        8.4725105348  MEMB      42              0.0000000000
      5147        42  DOPE      H9R           -27.9995692594      -11.5353852056        9.2030265382  MEMB      42              0.0000000000
      5148        42  DOPE      C210          -27.4362286631      -11.5645206835        7.1646597362  MEMB      42              0.0000000000
      5149        42  DOPE      H10R          -28.4380927190      -11.9055064998        6.8558886061  MEMB      42              0.0000000000
      5150        42  DOPE      C211          -26.4701061007      -11.3105152593        6.0301180250  MEMB      42              0.0000000000
      5151        42  DOPE      H11R          -25.9501219927      -10.3463506180        6.2056452839  MEMB      42              0.0000000000
      5152        42  DOPE      H11S          -27.0084962960      -11.2120852149        5.0580658406  MEMB      42              0.0000000000
      5153        42  DOPE      C212          -25.3790283249      -12.3984553597        5.9059879121  MEMB      42              0.0000000000
      5154        42  DOPE      H12R          -25.8101319573      -13.3045309223        5.4241388416  MEMB      42              0.0000000000
      5155        42  DOPE      H12S          -25.0515264566      -12.6873435207        6.9272503682  MEMB      42              0.0000000000
      5156        42  DOPE      C213          -24.1038273179      -11.9387354747        5.1694661325  MEMB      42              0.0000000000
      5157        42  DOPE      H13R          -23.7206064739      -10.9973915976        5.6179004089  MEMB      42              0.0000000000
      5158        42  DOPE      H13S          -24.3796785578      -11.6822131439        4.1190907364  MEMB      42              0.0000000000
      5159        42  DOPE      C214          -22.9729348184      -12.9976649712        5.1513267032  MEMB      42              0.0000000000
      5160        42  DOPE      H14R          -23.3352518946      -13.9329833626        5.6398647664  MEMB      42              0.0000000000
      5161        42  DOPE      H14S          -22.0875294874      -12.6657934419        5.7363783051  MEMB      42              0.0000000000
      5162        42  DOPE      C215          -22.6005666649      -13.2743519092        3.6910929447  MEMB      42              0.0000000000
      5163        42  DOPE      H15R          -21.6211844221      -13.7565485437        3.4858331532  MEMB      42              0.0000000000
      5164        42  DOPE      H15S          -22.5645467593      -12.2825458426        3.1979349448  MEMB      42              0.0000000000
      5165        42  DOPE      C216          -23.6974161835      -14.0937175280        3.0301489468  MEMB      42              0.0000000000
      5166        42  DOPE      H16R          -24.5778062075      -14.1356038982        3.7042221721  MEMB      42              0.0000000000
      5167        42  DOPE      H16S          -23.3269934807      -15.1349117722        2.9222416199  MEMB      42              0.0000000000
      5168        42  DOPE      C217          -24.0811984999      -13.5877169203        1.6455555020  MEMB      42              0.0000000000
      5169        42  DOPE      H17R          -24.3160436291      -12.5042799195        1.6509512011  MEMB      42              0.0000000000
      5170        42  DOPE      H17S          -25.0040473063      -14.1114118020        1.3084455832  MEMB      42              0.0000000000
      5171        42  DOPE      C218          -22.9380571018      -13.9016176239        0.6931969098  MEMB      42              0.0000000000
      5172        42  DOPE      H18R          -22.1295410125      -13.1515710884        0.7501537106  MEMB      42              0.0000000000
      5173        42  DOPE      H18S          -23.2929965867      -14.0244672505       -0.3443743018  MEMB      42              0.0000000000
      5174        42  DOPE      H18T          -22.4698972135      -14.8509673880        1.0123558974  MEMB      42              0.0000000000
      5175        42  DOPE      C33           -27.0243580235       -8.8825147065       12.9881630901  MEMB      42              0.0000000000
      5176        42  DOPE      H3X           -27.2394998195       -9.7253811223       12.2907828087  MEMB      42              0.0000000000
      5177        42  DOPE      H3Y           -25.9315496620       -8.8781654426       13.1870374999  MEMB      42              0.0000000000
      5178        42  DOPE      C34           -27.4600996679       -7.5921378799       12.3230353652  MEMB      42              0.0000000000
      5179        42  DOPE      H4X           -28.5415721695       -7.7421818089       12.1070427091  MEMB      42              0.0000000000
      5180        42  DOPE      H4Y           -27.3276287009       -6.7996953302       13.0894647813  MEMB      42              0.0000000000
      5181        42  DOPE      C35           -26.7928246376       -7.1440611946       11.0247705731  MEMB      42              0.0000000000
      5182        42  DOPE      H5X           -27.6081137553       -6.7671738786       10.3678399159  MEMB      42              0.0000000000
      5183        42  DOPE      H5Y           -26.3512421430       -8.0103823726       10.4946811483  MEMB      42              0.0000000000
      5184        42  DOPE      C36           -25.7785029693       -5.9877358572       11.1558806815  MEMB      42              0.0000000000
      5185        42  DOPE      H6X           -25.2683844457       -6.0119800426       12.1393931288  MEMB      42              0.0000000000
      5186        42  DOPE      H6Y           -26.2208523991       -4.9831574524       11.1016032440  MEMB      42              0.0000000000
      5187        42  DOPE      C37           -24.7919454877       -5.9887342582        9.9968725655  MEMB      42              0.0000000000
      5188        42  DOPE      H7X           -23.8065621164       -5.6505681891       10.3801610207  MEMB      42              0.0000000000
      5189        42  DOPE      H7Y           -24.7426415105       -7.0215193012        9.6164771741  MEMB      42              0.0000000000
      5190        42  DOPE      C38           -25.1629747398       -5.1259737613        8.8003837488  MEMB      42              0.0000000000
      5191        42  DOPE      H8X           -24.4258482708       -5.2772829236        7.9842455124  MEMB      42              0.0000000000
      5192        42  DOPE      H8Y           -25.0821440935       -4.0762473441        9.1590448378  MEMB      42              0.0000000000
      5193        42  DOPE      C39           -26.5693143818       -5.4013178480        8.3673289405  MEMB      42              0.0000000000
      5194        42  DOPE      H9X           -27.1875666210       -4.5007503416        8.3980786473  MEMB      42              0.0000000000
      5195        42  DOPE      C310          -27.1218329254       -6.4566160849        7.7675313324  MEMB      42              0.0000000000
      5196        42  DOPE      H10X          -28.1657274013       -6.3440528396        7.4385310118  MEMB      42              0.0000000000
      5197        42  DOPE      C311          -26.4833022271       -7.7416971396        7.2935842376  MEMB      42              0.0000000000
      5198        42  DOPE      H11X          -25.4348960372       -7.8925440448        7.6108040820  MEMB      42              0.0000000000
      5199        42  DOPE      H11Y          -27.0891724445       -8.6472696852        7.5043453219  MEMB      42              0.0000000000
      5200        42  DOPE      C312          -26.5889146567       -7.3217662670        5.8381340028  MEMB      42              0.0000000000
      5201        42  DOPE      H12X          -26.0214708105       -6.3591794554        5.6882358277  MEMB      42              0.0000000000
      5202        42  DOPE      H12Y          -27.6844964506       -7.2113180240        5.5993603522  MEMB      42              0.0000000000
      5203        42  DOPE      C313          -26.1106791667       -8.1054758059        4.6425525326  MEMB      42              0.0000000000
      5204        42  DOPE      H13X          -25.0194731682       -8.3177426820        4.6330604251  MEMB      42              0.0000000000
      5205        42  DOPE      H13Y          -26.6745470887       -9.0486566076        4.4980940404  MEMB      42              0.0000000000
      5206        42  DOPE      C314          -26.4779403334       -7.0780842088        3.5715911640  MEMB      42              0.0000000000
      5207        42  DOPE      H14X          -25.6399696339       -6.3521250980        3.4662364177  MEMB      42              0.0000000000
      5208        42  DOPE      H14Y          -27.3778541736       -6.4976270587        3.8630190230  MEMB      42              0.0000000000
      5209        42  DOPE      C315          -26.8744974774       -7.6500186838        2.2634677332  MEMB      42              0.0000000000
      5210        42  DOPE      H15X          -26.1325240455       -8.4272181284        2.0896667917  MEMB      42              0.0000000000
      5211        42  DOPE      H15Y          -26.8131085088       -6.8318909641        1.5072657804  MEMB      42              0.0000000000
      5212        42  DOPE      C316          -28.2104580827       -8.3649786288        2.1535006512  MEMB      42              0.0000000000
      5213        42  DOPE      H16X          -28.9170503426       -7.6239448724        1.7823027599  MEMB      42              0.0000000000
      5214        42  DOPE      H16Y          -28.5413920325       -8.8025142413        3.1013948600  MEMB      42              0.0000000000
      5215        42  DOPE      C317          -28.1718900550       -9.3892368742        1.0465733044  MEMB      42              0.0000000000
      5216        42  DOPE      H17X          -27.6528691411      -10.2934065274        1.4247230884  MEMB      42              0.0000000000
      5217        42  DOPE      H17Y          -29.1942420217       -9.6796945156        0.7029844043  MEMB      42              0.0000000000
      5218        42  DOPE      C318          -27.4015144255       -8.7562453679       -0.0963626028  MEMB      42              0.0000000000
      5219        42  DOPE      H18X          -27.8254673397       -7.7720125888       -0.3106995873  MEMB      42              0.0000000000
      5220        42  DOPE      H18Y          -26.3396542253       -8.5756195237        0.1379813319  MEMB      42              0.0000000000
      5221        42  DOPE      H18Z          -27.4279819995       -9.3436549261       -1.0095008907  MEMB      42              0.0000000000
      5222        43  DOPC      N              14.7571584467       25.5472243366       20.8668198605  MEMB      43              0.0000000000
      5223        43  DOPC      C12            16.0615613553       26.0194647145       20.1953478545  MEMB      43              0.0000000000
      5224        43  DOPC      H12A           16.7993678846       26.2643686935       20.9534650366  MEMB      43              0.0000000000
      5225        43  DOPC      H12B           15.8890388161       26.9161737406       19.6091100705  MEMB      43              0.0000000000
      5226        43  DOPC      C13            14.9014798666       24.0825025332       21.1794789329  MEMB      43              0.0000000000
      5227        43  DOPC      H13A           13.9784000868       23.5754912130       21.4085934461  MEMB      43              0.0000000000
      5228        43  DOPC      H13B           15.2534980217       23.6110809221       20.2436629440  MEMB      43              0.0000000000
      5229        43  DOPC      H13C           15.6463024106       23.8659979507       21.9270052588  MEMB      43              0.0000000000
      5230        43  DOPC      C14            13.6566998203       25.6477569355       19.8534030073  MEMB      43              0.0000000000
      5231        43  DOPC      H14A           13.4104179373       26.6675551002       19.6038254234  MEMB      43              0.0000000000
      5232        43  DOPC      H14B           14.0269547777       25.1833766595       18.9266349033  MEMB      43              0.0000000000
      5233        43  DOPC      H14C           12.7816155307       25.1045617415       20.1710569971  MEMB      43              0.0000000000
      5234        43  DOPC      C15            14.4900438472       26.4067301109       22.0499483012  MEMB      43              0.0000000000
      5235        43  DOPC      H15A           15.1890127376       26.1746628556       22.8505857179  MEMB      43              0.0000000000
      5236        43  DOPC      H15B           13.4757244955       26.3377877162       22.4134287246  MEMB      43              0.0000000000
      5237        43  DOPC      H15C           14.6422831895       27.4538111490       21.7872278176  MEMB      43              0.0000000000
      5238        43  DOPC      C11            16.7696354635       25.0426477188       19.2398673343  MEMB      43              0.0000000000
      5239        43  DOPC      H11A           17.4754321675       25.6269579499       18.6010533693  MEMB      43              0.0000000000
      5240        43  DOPC      H11B           17.3852818876       24.3428181022       19.8595291168  MEMB      43              0.0000000000
      5241        43  DOPC      P              16.4351681130       23.1682775686       17.5825144501  MEMB      43              0.0000000000
      5242        43  DOPC      O13            16.8403115885       22.1230186581       18.5515939343  MEMB      43              0.0000000000
      5243        43  DOPC      O14            17.4618771602       23.7618744239       16.7028920232  MEMB      43              0.0000000000
      5244        43  DOPC      O12            15.8229369122       24.3631098232       18.4136513557  MEMB      43              0.0000000000
      5245        43  DOPC      O11            15.1481031223       22.7003683838       16.7843319491  MEMB      43              0.0000000000
      5246        43  DOPC      C1             15.2280127119       21.7623549811       15.7210030425  MEMB      43              0.0000000000
      5247        43  DOPC      HA             14.2098341687       21.6108069261       15.2969066575  MEMB      43              0.0000000000
      5248        43  DOPC      HB             15.5474878374       20.7687534366       16.1132066043  MEMB      43              0.0000000000
      5249        43  DOPC      C2             16.1705264559       22.2000253115       14.5571920331  MEMB      43              0.0000000000
      5250        43  DOPC      HS             17.1994065128       22.3594810838       14.9499104546  MEMB      43              0.0000000000
      5251        43  DOPC      O21            15.6961323398       23.4121493138       13.9204667310  MEMB      43              0.0000000000
      5252        43  DOPC      C21            16.5768289854       24.0110890814       13.1039204391  MEMB      43              0.0000000000
      5253        43  DOPC      O22            17.7014925375       23.6103233824       12.8536479053  MEMB      43              0.0000000000
      5254        43  DOPC      C22            15.8694056740       25.2205690120       12.4385981828  MEMB      43              0.0000000000
      5255        43  DOPC      H2R            15.7538921225       25.9806161166       13.2306652240  MEMB      43              0.0000000000
      5256        43  DOPC      H2S            14.8539885143       24.8958372689       12.1238141192  MEMB      43              0.0000000000
      5257        43  DOPC      C3             16.2369498414       20.9973054815       13.5856203344  MEMB      43              0.0000000000
      5258        43  DOPC      HX             16.4694802380       20.1240338376       14.2513782134  MEMB      43              0.0000000000
      5259        43  DOPC      HY             17.0830952479       21.1180602841       12.8855925748  MEMB      43              0.0000000000
      5260        43  DOPC      O31            14.9821450543       20.7500494201       12.9198109485  MEMB      43              0.0000000000
      5261        43  DOPC      C31            14.6823218450       21.5921006670       11.9333496674  MEMB      43              0.0000000000
      5262        43  DOPC      O32            15.4118525259       22.3811990559       11.3776144675  MEMB      43              0.0000000000
      5263        43  DOPC      C32            13.2888722925       21.3519517022       11.4059196973  MEMB      43              0.0000000000
      5264        43  DOPC      H2X            13.1888051678       20.2563201401       11.4249911295  MEMB      43              0.0000000000
      5265        43  DOPC      H2Y            12.5630563040       21.8448903559       12.0831945249  MEMB      43              0.0000000000
      5266        43  DOPC      C23            16.5362554841       25.8571266508       11.1798500567  MEMB      43              0.0000000000
      5267        43  DOPC      H3R            16.3984754289       25.1634353260       10.3197734941  MEMB      43              0.0000000000
      5268        43  DOPC      H3S            17.6318584165       25.9674887395       11.3132906142  MEMB      43              0.0000000000
      5269        43  DOPC      C24            15.9022812524       27.2324919209       10.8519893158  MEMB      43              0.0000000000
      5270        43  DOPC      H4R            16.1296548731       27.9558412297       11.6464333480  MEMB      43              0.0000000000
      5271        43  DOPC      H4S            14.7966797921       27.1296944798       10.8793445020  MEMB      43              0.0000000000
      5272        43  DOPC      C25            16.2956919657       27.8576450257        9.4987069851  MEMB      43              0.0000000000
      5273        43  DOPC      H5R            17.3667583840       28.1619938615        9.5045208172  MEMB      43              0.0000000000
      5274        43  DOPC      H5S            15.6906280572       28.7802277597        9.3437943033  MEMB      43              0.0000000000
      5275        43  DOPC      C26            16.0418811287       26.9080589361        8.3260451588  MEMB      43              0.0000000000
      5276        43  DOPC      H6R            16.8066030620       26.0986859646        8.3646324122  MEMB      43              0.0000000000
      5277        43  DOPC      H6S            16.1891942197       27.4415909073        7.3608201555  MEMB      43              0.0000000000
      5278        43  DOPC      C27            14.6333027396       26.2856400499        8.3666949039  MEMB      43              0.0000000000
      5279        43  DOPC      H7R            13.8828860426       27.0962271519        8.2394950901  MEMB      43              0.0000000000
      5280        43  DOPC      H7S            14.4260036126       25.7920107307        9.3408828457  MEMB      43              0.0000000000
      5281        43  DOPC      C28            14.4384827878       25.2373529602        7.2750655878  MEMB      43              0.0000000000
      5282        43  DOPC      H8R            14.7231556377       25.7381390501        6.3230775970  MEMB      43              0.0000000000
      5283        43  DOPC      H8S            13.3646082315       24.9854777408        7.1805534458  MEMB      43              0.0000000000
      5284        43  DOPC      C29            15.2564173861       24.0020089591        7.5849390487  MEMB      43              0.0000000000
      5285        43  DOPC      H9R            15.0568787231       23.5123915529        8.5500918093  MEMB      43              0.0000000000
      5286        43  DOPC      C210           16.2194172132       23.5178677118        6.7924135755  MEMB      43              0.0000000000
      5287        43  DOPC      H10R           16.7972044585       22.6298651411        7.0973802339  MEMB      43              0.0000000000
      5288        43  DOPC      C211           16.5800010037       24.1776078740        5.4919156337  MEMB      43              0.0000000000
      5289        43  DOPC      H11R           17.5866304696       23.8639200830        5.1522977498  MEMB      43              0.0000000000
      5290        43  DOPC      H11S           16.6781008123       25.2705624725        5.6599641467  MEMB      43              0.0000000000
      5291        43  DOPC      C212           15.4988345034       23.9760533986        4.4004011544  MEMB      43              0.0000000000
      5292        43  DOPC      H12R           15.7624027678       24.6166051492        3.5326782643  MEMB      43              0.0000000000
      5293        43  DOPC      H12S           14.5122673064       24.3316823726        4.7638388628  MEMB      43              0.0000000000
      5294        43  DOPC      C213           15.3224992297       22.5347839108        3.9220615045  MEMB      43              0.0000000000
      5295        43  DOPC      H13R           14.6931182188       22.5045821055        3.0003030660  MEMB      43              0.0000000000
      5296        43  DOPC      H13S           14.8048765047       21.9299672444        4.6970018739  MEMB      43              0.0000000000
      5297        43  DOPC      C214           16.6650034869       21.9031312537        3.6373087617  MEMB      43              0.0000000000
      5298        43  DOPC      H14R           17.3842616243       21.9972828414        4.4768043634  MEMB      43              0.0000000000
      5299        43  DOPC      H14S           17.1053640131       22.3979442807        2.7373024433  MEMB      43              0.0000000000
      5300        43  DOPC      C215           16.5760603050       20.4236081906        3.3881906820  MEMB      43              0.0000000000
      5301        43  DOPC      H15R           15.5782307094       20.1420160466        3.0396416516  MEMB      43              0.0000000000
      5302        43  DOPC      H15S           16.8211648344       19.8739896238        4.3293141891  MEMB      43              0.0000000000
      5303        43  DOPC      C216           17.5675335346       20.1817658741        2.2805413210  MEMB      43              0.0000000000
      5304        43  DOPC      H16R           18.4629972159       20.5896641170        2.7881269450  MEMB      43              0.0000000000
      5305        43  DOPC      H16S           17.3401222550       20.8704360104        1.4401146162  MEMB      43              0.0000000000
      5306        43  DOPC      C217           17.7009387170       18.7350567377        1.8051790065  MEMB      43              0.0000000000
      5307        43  DOPC      H17R           18.6653572224       18.5044108926        1.3302220121  MEMB      43              0.0000000000
      5308        43  DOPC      H17S           17.0424599375       18.5491240454        0.9460558293  MEMB      43              0.0000000000
      5309        43  DOPC      C218           17.4523080929       17.7440956841        2.9256706314  MEMB      43              0.0000000000
      5310        43  DOPC      H18R           17.3439110360       16.7224910225        2.5209821566  MEMB      43              0.0000000000
      5311        43  DOPC      H18S           16.5281328856       17.9135117475        3.5006221841  MEMB      43              0.0000000000
      5312        43  DOPC      H18T           18.3244558170       17.8030037961        3.6081244226  MEMB      43              0.0000000000
      5313        43  DOPC      C33            13.2783389689       21.8956675283        9.9510262791  MEMB      43              0.0000000000
      5314        43  DOPC      H3X            14.0191511040       21.3044137757        9.3570908307  MEMB      43              0.0000000000
      5315        43  DOPC      H3Y            13.6108553565       22.9621122646        9.9543210769  MEMB      43              0.0000000000
      5316        43  DOPC      C34            11.9698467869       21.9297500777        9.1553162114  MEMB      43              0.0000000000
      5317        43  DOPC      H4X            11.3080749398       22.7344689994        9.5415294235  MEMB      43              0.0000000000
      5318        43  DOPC      H4Y            11.4076353260       20.9742528360        9.2001604282  MEMB      43              0.0000000000
      5319        43  DOPC      C35            12.2526074653       22.3447469627        7.7083243642  MEMB      43              0.0000000000
      5320        43  DOPC      H5X            13.2813211993       22.1229176725        7.3658706187  MEMB      43              0.0000000000
      5321        43  DOPC      H5Y            12.1954979237       23.4504398215        7.6663644947  MEMB      43              0.0000000000
      5322        43  DOPC      C36            11.2275277522       21.8737232543        6.6897150172  MEMB      43              0.0000000000
      5323        43  DOPC      H6X            11.0807405031       20.7770837928        6.6483829654  MEMB      43              0.0000000000
      5324        43  DOPC      H6Y            10.2643915681       22.3042215936        7.0169847578  MEMB      43              0.0000000000
      5325        43  DOPC      C37            11.6157803500       22.4716601688        5.3398764211  MEMB      43              0.0000000000
      5326        43  DOPC      H7X            11.0260290028       23.3931429449        5.2074210958  MEMB      43              0.0000000000
      5327        43  DOPC      H7Y            12.6858903878       22.7901511342        5.3819305010  MEMB      43              0.0000000000
      5328        43  DOPC      C38            11.4912089910       21.5294751197        4.1443049983  MEMB      43              0.0000000000
      5329        43  DOPC      H8X            11.9957723147       20.6082030545        4.3815329160  MEMB      43              0.0000000000
      5330        43  DOPC      H8Y            12.0863357023       21.9523562288        3.3103283880  MEMB      43              0.0000000000
      5331        43  DOPC      C39            10.1164658742       21.1014724831        3.7549070262  MEMB      43              0.0000000000
      5332        43  DOPC      H9X             9.4779450031       20.7404851394        4.5707026068  MEMB      43              0.0000000000
      5333        43  DOPC      C310            9.6605657581       21.0142718422        2.5037349257  MEMB      43              0.0000000000
      5334        43  DOPC      H10X            8.6956387854       20.5465778800        2.3173520174  MEMB      43              0.0000000000
      5335        43  DOPC      C311           10.4356382250       21.3121646181        1.2766453375  MEMB      43              0.0000000000
      5336        43  DOPC      H11X           10.1807229155       20.4769452201        0.6000653569  MEMB      43              0.0000000000
      5337        43  DOPC      H11Y           11.5035785203       21.2172499202        1.5615525459  MEMB      43              0.0000000000
      5338        43  DOPC      C312           10.3577178392       22.4553924174        0.2653989222  MEMB      43              0.0000000000
      5339        43  DOPC      H12X           10.1235842581       23.4490111193        0.6962577351  MEMB      43              0.0000000000
      5340        43  DOPC      H12Y            9.5682011538       22.1997509531       -0.4666982503  MEMB      43              0.0000000000
      5341        43  DOPC      C313           11.7637071545       22.4120527450       -0.3385127095  MEMB      43              0.0000000000
      5342        43  DOPC      H13X           12.4231503489       22.6456932218        0.5087999226  MEMB      43              0.0000000000
      5343        43  DOPC      H13Y           12.0862893898       21.3898784600       -0.5802465394  MEMB      43              0.0000000000
      5344        43  DOPC      C314           12.0716681189       23.3259886004       -1.4939453512  MEMB      43              0.0000000000
      5345        43  DOPC      H14X           12.5866828623       22.7549278386       -2.2976645324  MEMB      43              0.0000000000
      5346        43  DOPC      H14Y           11.1184687848       23.7161976811       -1.9202111846  MEMB      43              0.0000000000
      5347        43  DOPC      C315           12.8997366167       24.5165313375       -1.0161712578  MEMB      43              0.0000000000
      5348        43  DOPC      H15X           12.1374586064       25.1264765349       -0.4744023036  MEMB      43              0.0000000000
      5349        43  DOPC      H15Y           13.2533554464       25.0819110954       -1.8992597668  MEMB      43              0.0000000000
      5350        43  DOPC      C316           14.1130494951       24.3223966102       -0.0723804778  MEMB      43              0.0000000000
      5351        43  DOPC      H16X           13.8739721433       23.8220710419        0.8736419633  MEMB      43              0.0000000000
      5352        43  DOPC      H16Y           14.8849955941       23.6596706714       -0.4915060291  MEMB      43              0.0000000000
      5353        43  DOPC      C317           14.7042485574       25.6726297430        0.3298723022  MEMB      43              0.0000000000
      5354        43  DOPC      H17X           14.9799962896       25.6671968925        1.4104678135  MEMB      43              0.0000000000
      5355        43  DOPC      H17Y           15.6449929957       25.8486218344       -0.2287884001  MEMB      43              0.0000000000
      5356        43  DOPC      C318           13.7722939214       26.8451910287        0.0665373169  MEMB      43              0.0000000000
      5357        43  DOPC      H18X           12.8994569072       26.8672456777        0.7461846061  MEMB      43              0.0000000000
      5358        43  DOPC      H18Y           14.3575198620       27.7416918740        0.1918783869  MEMB      43              0.0000000000
      5359        43  DOPC      H18Z           13.4176827535       26.9187058249       -0.9780330570  MEMB      43              0.0000000000
      5360        44  DOPE      N              -7.2889725718       26.6145062890       19.2380475955  MEMB      44              0.0000000000
      5361        44  DOPE      HN1            -8.2158842435       26.5000586313       18.7787496861  MEMB      44              0.0000000000
      5362        44  DOPE      HN2            -6.5072345604       26.4510607508       18.5627580080  MEMB      44              0.0000000000
      5363        44  DOPE      HN3            -7.1992158630       25.9209326751       20.0105472741  MEMB      44              0.0000000000
      5364        44  DOPE      C12            -7.0876713591       27.9920044400       19.7753163406  MEMB      44              0.0000000000
      5365        44  DOPE      H12A           -7.7771298606       28.1424322888       20.6298086721  MEMB      44              0.0000000000
      5366        44  DOPE      H12B           -7.3244007709       28.7203733105       18.9701499592  MEMB      44              0.0000000000
      5367        44  DOPE      C11            -5.6237383561       28.1598015539       20.1846220934  MEMB      44              0.0000000000
      5368        44  DOPE      H11A           -5.3297879071       27.4380927400       20.9685003651  MEMB      44              0.0000000000
      5369        44  DOPE      H11B           -5.5439914703       29.1896223060       20.6242613222  MEMB      44              0.0000000000
      5370        44  DOPE      P              -3.5793448391       28.9597716007       18.8169316289  MEMB      44              0.0000000000
      5371        44  DOPE      O13            -2.9978066091       28.6643811716       17.4911905424  MEMB      44              0.0000000000
      5372        44  DOPE      O14            -2.6841210491       28.8605460277       20.0000339209  MEMB      44              0.0000000000
      5373        44  DOPE      O11            -4.4853547919       30.2846004137       18.7565599809  MEMB      44              0.0000000000
      5374        44  DOPE      O12            -4.7737474042       27.9262477013       19.0559436941  MEMB      44              0.0000000000
      5375        44  DOPE      C1             -4.3293983517       31.2870121897       17.7302770943  MEMB      44              0.0000000000
      5376        44  DOPE      HA             -3.5643067348       30.9902754496       16.9752443528  MEMB      44              0.0000000000
      5377        44  DOPE      HB             -3.8924916303       32.1997752486       18.1973180441  MEMB      44              0.0000000000
      5378        44  DOPE      C2             -5.6275740629       31.7817744650       16.9215026009  MEMB      44              0.0000000000
      5379        44  DOPE      HS             -5.6504307873       32.8868926321       17.0659729240  MEMB      44              0.0000000000
      5380        44  DOPE      O21            -6.9113039183       31.2049679077       17.3248406094  MEMB      44              0.0000000000
      5381        44  DOPE      C21            -7.9633998213       31.8177233132       16.7186462621  MEMB      44              0.0000000000
      5382        44  DOPE      O22            -7.9030008195       32.8829285703       16.1473912749  MEMB      44              0.0000000000
      5383        44  DOPE      C22            -9.2699212221       31.0235974128       16.8693721656  MEMB      44              0.0000000000
      5384        44  DOPE      H2R           -10.1052073955       31.7485779341       16.7277180248  MEMB      44              0.0000000000
      5385        44  DOPE      H2S            -9.3153742334       30.6373672080       17.9031105580  MEMB      44              0.0000000000
      5386        44  DOPE      C3             -5.4241555547       31.5025037586       15.3893848479  MEMB      44              0.0000000000
      5387        44  DOPE      HX             -4.5230671649       32.0541808573       15.0466920426  MEMB      44              0.0000000000
      5388        44  DOPE      HY             -6.2807317184       31.8636520403       14.7827611497  MEMB      44              0.0000000000
      5389        44  DOPE      O31            -5.2435570262       30.1000456171       15.1999589110  MEMB      44              0.0000000000
      5390        44  DOPE      C31            -4.9983278492       29.6331163414       13.9972783908  MEMB      44              0.0000000000
      5391        44  DOPE      O32            -5.1118866330       30.2293552441       12.9379617379  MEMB      44              0.0000000000
      5392        44  DOPE      C32            -4.4727853970       28.2120024737       14.2249657892  MEMB      44              0.0000000000
      5393        44  DOPE      H2X            -3.7640358845       28.2530593021       15.0818644430  MEMB      44              0.0000000000
      5394        44  DOPE      H2Y            -5.3351716346       27.6032936229       14.5616905046  MEMB      44              0.0000000000
      5395        44  DOPE      C23            -9.5185148135       29.8684068531       15.8778762086  MEMB      44              0.0000000000
      5396        44  DOPE      H3R            -9.6741787894       30.2700638981       14.8509295454  MEMB      44              0.0000000000
      5397        44  DOPE      H3S           -10.4724909780       29.3685090179       16.1799972791  MEMB      44              0.0000000000
      5398        44  DOPE      C24            -8.3739692459       28.8576507049       15.9072436892  MEMB      44              0.0000000000
      5399        44  DOPE      H4R            -8.1912066203       28.5480514138       16.9581190840  MEMB      44              0.0000000000
      5400        44  DOPE      H4S            -7.4578179131       29.3666112009       15.5429537283  MEMB      44              0.0000000000
      5401        44  DOPE      C25            -8.6099310250       27.6201235131       15.0491133647  MEMB      44              0.0000000000
      5402        44  DOPE      H5R            -9.4179514535       27.0221656058       15.5365865342  MEMB      44              0.0000000000
      5403        44  DOPE      H5S            -7.6948505204       26.9882647898       15.0310262588  MEMB      44              0.0000000000
      5404        44  DOPE      C26            -9.0728895088       27.9101750105       13.6124269781  MEMB      44              0.0000000000
      5405        44  DOPE      H6R           -10.0667521126       28.4021450093       13.6749852091  MEMB      44              0.0000000000
      5406        44  DOPE      H6S            -9.1772089659       26.9194091373       13.1151894024  MEMB      44              0.0000000000
      5407        44  DOPE      C27            -8.2714747922       28.8265115126       12.6743134467  MEMB      44              0.0000000000
      5408        44  DOPE      H7R            -7.2555910100       28.4306624084       12.4985826129  MEMB      44              0.0000000000
      5409        44  DOPE      H7S            -8.1520113310       29.8351533232       13.1251146163  MEMB      44              0.0000000000
      5410        44  DOPE      C28            -9.0105180480       28.9327677956       11.3167192326  MEMB      44              0.0000000000
      5411        44  DOPE      H8R           -10.0035862178       29.4024343647       11.4936104512  MEMB      44              0.0000000000
      5412        44  DOPE      H8S            -9.2004351208       27.8930717502       10.9682077434  MEMB      44              0.0000000000
      5413        44  DOPE      C29            -8.2477010444       29.7203049221       10.2849275737  MEMB      44              0.0000000000
      5414        44  DOPE      H9R            -7.8819709835       30.7006554002       10.6365851330  MEMB      44              0.0000000000
      5415        44  DOPE      C210           -7.9854910328       29.3419006232        9.0191067823  MEMB      44              0.0000000000
      5416        44  DOPE      H10R           -7.3671966147       30.0056895057        8.4026175980  MEMB      44              0.0000000000
      5417        44  DOPE      C211           -8.3756936483       28.0648192994        8.3127433853  MEMB      44              0.0000000000
      5418        44  DOPE      H11R           -9.0260785408       27.4107338651        8.9317115280  MEMB      44              0.0000000000
      5419        44  DOPE      H11S           -7.4525011270       27.4864394645        8.0864821247  MEMB      44              0.0000000000
      5420        44  DOPE      C212           -9.0931354014       28.3144953902        6.9735625024  MEMB      44              0.0000000000
      5421        44  DOPE      H12R          -10.0945031383       28.7725277902        7.1290205028  MEMB      44              0.0000000000
      5422        44  DOPE      H12S           -9.2611712776       27.3309990355        6.4761553111  MEMB      44              0.0000000000
      5423        44  DOPE      C213           -8.2913122938       29.2060203943        6.0247213943  MEMB      44              0.0000000000
      5424        44  DOPE      H13R           -7.2258708123       28.8865626771        6.0013031186  MEMB      44              0.0000000000
      5425        44  DOPE      H13S           -8.3107768907       30.2606093689        6.3872392615  MEMB      44              0.0000000000
      5426        44  DOPE      C214           -8.8620714397       29.1673120534        4.6126695274  MEMB      44              0.0000000000
      5427        44  DOPE      H14R           -9.9560593599       29.3688931324        4.6474553131  MEMB      44              0.0000000000
      5428        44  DOPE      H14S           -8.7257402865       28.1580949176        4.1654397739  MEMB      44              0.0000000000
      5429        44  DOPE      C215           -8.1884265396       30.2164855158        3.7409138038  MEMB      44              0.0000000000
      5430        44  DOPE      H15R           -7.0979058304       30.0105146344        3.6887473397  MEMB      44              0.0000000000
      5431        44  DOPE      H15S           -8.3180395068       31.2132888747        4.2128140993  MEMB      44              0.0000000000
      5432        44  DOPE      C216           -8.7865783558       30.2311901235        2.3469048021  MEMB      44              0.0000000000
      5433        44  DOPE      H16R           -9.8426384779       30.5691765754        2.4024039870  MEMB      44              0.0000000000
      5434        44  DOPE      H16S           -8.7976195502       29.2011519659        1.9251917896  MEMB      44              0.0000000000
      5435        44  DOPE      C217           -8.0355527118       31.1311841436        1.3782862108  MEMB      44              0.0000000000
      5436        44  DOPE      H17R           -8.0453564862       32.1851508694        1.6385764392  MEMB      44              0.0000000000
      5437        44  DOPE      H17S           -8.6925489061       31.1267724625        0.5113859384  MEMB      44              0.0000000000
      5438        44  DOPE      C218           -6.5970589607       30.7269246943        1.0627069991  MEMB      44              0.0000000000
      5439        44  DOPE      H18R           -6.0945005880       31.4467033043        0.3923571859  MEMB      44              0.0000000000
      5440        44  DOPE      H18S           -6.6062458787       29.7558428318        0.5404470115  MEMB      44              0.0000000000
      5441        44  DOPE      H18T           -5.9752547988       30.6512244025        1.9778528939  MEMB      44              0.0000000000
      5442        44  DOPE      C33            -3.7655985032       27.5619237241       13.0138497446  MEMB      44              0.0000000000
      5443        44  DOPE      H3X            -2.6687164691       27.5374906845       13.2083817695  MEMB      44              0.0000000000
      5444        44  DOPE      H3Y            -3.9300241370       28.1434920600       12.0811191043  MEMB      44              0.0000000000
      5445        44  DOPE      C34            -4.2537368837       26.1285986069       12.7797501944  MEMB      44              0.0000000000
      5446        44  DOPE      H4X            -3.5982232944       25.6198618115       12.0466327053  MEMB      44              0.0000000000
      5447        44  DOPE      H4Y            -4.0876266675       25.5900829720       13.7349211303  MEMB      44              0.0000000000
      5448        44  DOPE      C35            -5.7343527098       26.0851458470       12.3443411942  MEMB      44              0.0000000000
      5449        44  DOPE      H5X            -6.3213189483       26.7818372082       12.9635082085  MEMB      44              0.0000000000
      5450        44  DOPE      H5Y            -6.1883640716       25.1027163544       12.5530787243  MEMB      44              0.0000000000
      5451        44  DOPE      C36            -5.9527831404       26.3906842248       10.8543738199  MEMB      44              0.0000000000
      5452        44  DOPE      H6X            -5.6392960575       27.4365760743       10.6436008608  MEMB      44              0.0000000000
      5453        44  DOPE      H6Y            -7.0358663804       26.3026941750       10.6097581497  MEMB      44              0.0000000000
      5454        44  DOPE      C37            -5.1548773691       25.4216340143        9.9799168126  MEMB      44              0.0000000000
      5455        44  DOPE      H7X            -4.0691336347       25.6381973321       10.0973378688  MEMB      44              0.0000000000
      5456        44  DOPE      H7Y            -5.3421041790       24.3947385257       10.3673199144  MEMB      44              0.0000000000
      5457        44  DOPE      C38            -5.4650847191       25.4877446507        8.4863225327  MEMB      44              0.0000000000
      5458        44  DOPE      H8X            -5.2195232224       26.5043241080        8.1165137333  MEMB      44              0.0000000000
      5459        44  DOPE      H8Y            -6.5466915144       25.3370075508        8.2911585686  MEMB      44              0.0000000000
      5460        44  DOPE      C39            -4.6328330336       24.3975880375        7.8600384830  MEMB      44              0.0000000000
      5461        44  DOPE      H9X            -4.9619450166       23.3768767461        8.1093564694  MEMB      44              0.0000000000
      5462        44  DOPE      C310           -3.5657526207       24.5582990817        7.0613332433  MEMB      44              0.0000000000
      5463        44  DOPE      H10X           -3.0354293318       23.6655740997        6.6926327336  MEMB      44              0.0000000000
      5464        44  DOPE      C311           -2.9915995877       25.8819270385        6.6342787914  MEMB      44              0.0000000000
      5465        44  DOPE      H11X           -3.1616246862       26.6671652314        7.4047218871  MEMB      44              0.0000000000
      5466        44  DOPE      H11Y           -1.8881221969       25.7860595939        6.5245863666  MEMB      44              0.0000000000
      5467        44  DOPE      C312           -3.5599870680       26.3710072243        5.2878494891  MEMB      44              0.0000000000
      5468        44  DOPE      H12X           -3.4006924428       25.5929345640        4.5079991840  MEMB      44              0.0000000000
      5469        44  DOPE      H12Y           -2.9800607749       27.2727749737        4.9859936894  MEMB      44              0.0000000000
      5470        44  DOPE      C313           -5.0473040216       26.7634969897        5.3024350267  MEMB      44              0.0000000000
      5471        44  DOPE      H13X           -5.6780103959       25.8459860364        5.3280751515  MEMB      44              0.0000000000
      5472        44  DOPE      H13Y           -5.2728535880       27.3489205561        6.2196627578  MEMB      44              0.0000000000
      5473        44  DOPE      C314           -5.4295822202       27.6111501167        4.0829238336  MEMB      44              0.0000000000
      5474        44  DOPE      H14X           -4.8782076786       28.5778869001        4.1194345920  MEMB      44              0.0000000000
      5475        44  DOPE      H14Y           -6.5135524325       27.8425900182        4.1323129543  MEMB      44              0.0000000000
      5476        44  DOPE      C315           -5.1439963217       26.9011725725        2.7543042524  MEMB      44              0.0000000000
      5477        44  DOPE      H15X           -5.6601024371       25.9162557561        2.7636206095  MEMB      44              0.0000000000
      5478        44  DOPE      H15Y           -4.0508636929       26.7296414620        2.6457287083  MEMB      44              0.0000000000
      5479        44  DOPE      C316           -5.6288510762       27.7027095930        1.5490357388  MEMB      44              0.0000000000
      5480        44  DOPE      H16X           -5.0218300283       28.6347646120        1.4931458359  MEMB      44              0.0000000000
      5481        44  DOPE      H16Y           -6.6936026603       27.9825741446        1.7210214287  MEMB      44              0.0000000000
      5482        44  DOPE      C317           -5.5171997032       26.9501361613        0.2172639439  MEMB      44              0.0000000000
      5483        44  DOPE      H17X           -4.4572211489       26.6369454303        0.0816854979  MEMB      44              0.0000000000
      5484        44  DOPE      H17Y           -6.1364965672       26.0278405361        0.2890213359  MEMB      44              0.0000000000
      5485        44  DOPE      C318           -5.9617826230       27.7562554977       -1.0097565029  MEMB      44              0.0000000000
      5486        44  DOPE      H18X           -5.8006431986       27.1728976844       -1.9411741933  MEMB      44              0.0000000000
      5487        44  DOPE      H18Y           -7.0406851504       28.0145067288       -0.9412002493  MEMB      44              0.0000000000
      5488        44  DOPE      H18Z           -5.3855686147       28.7044689782       -1.0900446949  MEMB      44              0.0000000000
      5489        45  DOPC      N              30.8719984543       -0.4338381411       20.6563372927  MEMB      45              0.0000000000
      5490        45  DOPC      C12            30.0828931322        0.6126738895       19.8796910191  MEMB      45              0.0000000000
      5491        45  DOPC      H12A           30.6996376700        1.4841748868       19.6913021936  MEMB      45              0.0000000000
      5492        45  DOPC      H12B           29.2487488450        0.9536299680       20.4868239882  MEMB      45              0.0000000000
      5493        45  DOPC      C13            31.4187875719        0.2047139824       21.8946179647  MEMB      45              0.0000000000
      5494        45  DOPC      H13A           31.7986563269       -0.5651153569       22.5617755374  MEMB      45              0.0000000000
      5495        45  DOPC      H13B           32.1760711922        0.9445988059       21.6474995829  MEMB      45              0.0000000000
      5496        45  DOPC      H13C           30.6375787662        0.7307488179       22.4430222831  MEMB      45              0.0000000000
      5497        45  DOPC      C14            31.9689836548       -1.0710488430       19.8279970836  MEMB      45              0.0000000000
      5498        45  DOPC      H14A           32.7440125219       -0.3806504169       19.5114883224  MEMB      45              0.0000000000
      5499        45  DOPC      H14B           32.4805353375       -1.8997736105       20.3144824035  MEMB      45              0.0000000000
      5500        45  DOPC      H14C           31.5682880183       -1.5000733360       18.9011820944  MEMB      45              0.0000000000
      5501        45  DOPC      C15            29.9489514942       -1.5464588582       21.0610874624  MEMB      45              0.0000000000
      5502        45  DOPC      H15A           29.0664616360       -1.1445915274       21.5288070716  MEMB      45              0.0000000000
      5503        45  DOPC      H15B           30.4192149195       -2.2512410332       21.7437719340  MEMB      45              0.0000000000
      5504        45  DOPC      H15C           29.6065947330       -2.0885848610       20.1848757334  MEMB      45              0.0000000000
      5505        45  DOPC      C11            29.4039966874        0.1538573906       18.5883711936  MEMB      45              0.0000000000
      5506        45  DOPC      H11A           29.2252445197        1.0419166985       17.9362505174  MEMB      45              0.0000000000
      5507        45  DOPC      H11B           30.1201367835       -0.5093215484       18.0441760907  MEMB      45              0.0000000000
      5508        45  DOPC      P              27.3640710859       -1.0056138086       17.6155725166  MEMB      45              0.0000000000
      5509        45  DOPC      O13            26.9952770314        0.1277681684       16.7402021038  MEMB      45              0.0000000000
      5510        45  DOPC      O14            26.3338667659       -1.9975292686       17.9897726199  MEMB      45              0.0000000000
      5511        45  DOPC      O12            28.1542112327       -0.4896496962       18.9090151686  MEMB      45              0.0000000000
      5512        45  DOPC      O11            28.5694054278       -1.7974925530       16.9909441031  MEMB      45              0.0000000000
      5513        45  DOPC      C1             29.0634941366       -2.9889895268       17.6346195441  MEMB      45              0.0000000000
      5514        45  DOPC      HA             28.3237319512       -3.4581825660       18.3274590305  MEMB      45              0.0000000000
      5515        45  DOPC      HB             29.9849750819       -2.7999167286       18.2258455882  MEMB      45              0.0000000000
      5516        45  DOPC      C2             29.3199355300       -4.0373987227       16.5343312909  MEMB      45              0.0000000000
      5517        45  DOPC      HS             29.5682310595       -4.9893399006       17.0337519571  MEMB      45              0.0000000000
      5518        45  DOPC      O21            30.4059100234       -3.7764677287       15.6257440195  MEMB      45              0.0000000000
      5519        45  DOPC      C21            30.8988657587       -2.5643673908       15.6466664542  MEMB      45              0.0000000000
      5520        45  DOPC      O22            31.3654595497       -1.9752311417       16.5950178602  MEMB      45              0.0000000000
      5521        45  DOPC      C22            30.7510742161       -1.9653328771       14.2641811849  MEMB      45              0.0000000000
      5522        45  DOPC      H2R            31.1465780918       -0.9326392126       14.2968590612  MEMB      45              0.0000000000
      5523        45  DOPC      H2S            29.6625803795       -1.9102614550       14.0595806039  MEMB      45              0.0000000000
      5524        45  DOPC      C3             27.9622041561       -4.1290197725       15.7579717886  MEMB      45              0.0000000000
      5525        45  DOPC      HX             27.2413213957       -3.4765579213       16.2755199871  MEMB      45              0.0000000000
      5526        45  DOPC      HY             27.4434701009       -5.0951981300       15.9118717811  MEMB      45              0.0000000000
      5527        45  DOPC      O31            28.0325975427       -3.6239174236       14.4000732844  MEMB      45              0.0000000000
      5528        45  DOPC      C31            27.0791203974       -4.0885585365       13.6384019493  MEMB      45              0.0000000000
      5529        45  DOPC      O32            26.5217089137       -5.1629356538       13.7876724748  MEMB      45              0.0000000000
      5530        45  DOPC      C32            26.6475899201       -3.0343072893       12.6318614486  MEMB      45              0.0000000000
      5531        45  DOPC      H2X            26.2746120372       -2.1443631176       13.1914067038  MEMB      45              0.0000000000
      5532        45  DOPC      H2Y            27.4887409368       -2.7062402029       11.9946106023  MEMB      45              0.0000000000
      5533        45  DOPC      C23            31.4655643248       -2.7861037089       13.1825883612  MEMB      45              0.0000000000
      5534        45  DOPC      H3R            30.9493009560       -3.7651450091       13.0589464253  MEMB      45              0.0000000000
      5535        45  DOPC      H3S            32.5165690456       -3.0057348362       13.4910331297  MEMB      45              0.0000000000
      5536        45  DOPC      C24            31.5031005818       -2.0240689208       11.8618670008  MEMB      45              0.0000000000
      5537        45  DOPC      H4R            31.7985939503       -2.7263650106       11.0499227556  MEMB      45              0.0000000000
      5538        45  DOPC      H4S            32.2687065981       -1.2196827068       11.9284191933  MEMB      45              0.0000000000
      5539        45  DOPC      C25            30.2158174444       -1.3191759314       11.4499737810  MEMB      45              0.0000000000
      5540        45  DOPC      H5R            29.9224010345       -0.5383505434       12.1896195831  MEMB      45              0.0000000000
      5541        45  DOPC      H5S            29.3979377328       -2.0677691177       11.3916326291  MEMB      45              0.0000000000
      5542        45  DOPC      C26            30.4477348609       -0.6745249555       10.0856784936  MEMB      45              0.0000000000
      5543        45  DOPC      H6R            31.1628522670       -1.3080290913        9.5115701797  MEMB      45              0.0000000000
      5544        45  DOPC      H6S            30.9195905694        0.3260934942       10.2126273833  MEMB      45              0.0000000000
      5545        45  DOPC      C27            29.1753562731       -0.5809103277        9.2593181398  MEMB      45              0.0000000000
      5546        45  DOPC      H7R            28.4630428327        0.0812292279        9.8021516357  MEMB      45              0.0000000000
      5547        45  DOPC      H7S            28.6988472739       -1.5834744901        9.1951850251  MEMB      45              0.0000000000
      5548        45  DOPC      C28            29.4334079016       -0.0274700007        7.8430789816  MEMB      45              0.0000000000
      5549        45  DOPC      H8R            29.9285342177        0.9632236970        7.9197575401  MEMB      45              0.0000000000
      5550        45  DOPC      H8S            28.4306950445        0.1676621376        7.4113081391  MEMB      45              0.0000000000
      5551        45  DOPC      C29            30.1719925803       -0.9008356495        6.8724879547  MEMB      45              0.0000000000
      5552        45  DOPC      H9R            31.2556253632       -0.7308485622        6.7646844029  MEMB      45              0.0000000000
      5553        45  DOPC      C210           29.5472504637       -1.8456774998        6.1558316743  MEMB      45              0.0000000000
      5554        45  DOPC      H10R           30.1076590962       -2.4278833115        5.4091892808  MEMB      45              0.0000000000
      5555        45  DOPC      C211           28.0638168853       -2.1151124847        6.2660335375  MEMB      45              0.0000000000
      5556        45  DOPC      H11R           27.4760170263       -1.1952566848        6.0541177026  MEMB      45              0.0000000000
      5557        45  DOPC      H11S           27.7995266167       -2.4079122972        7.3066023846  MEMB      45              0.0000000000
      5558        45  DOPC      C212           27.5806720290       -3.2324472309        5.3318996114  MEMB      45              0.0000000000
      5559        45  DOPC      H12R           27.8338199088       -2.9667009428        4.2812422553  MEMB      45              0.0000000000
      5560        45  DOPC      H12S           26.4726922528       -3.3135303644        5.4028291531  MEMB      45              0.0000000000
      5561        45  DOPC      C213           28.1998522383       -4.5860748016        5.6908647546  MEMB      45              0.0000000000
      5562        45  DOPC      H13R           28.0136162924       -4.8067765826        6.7647062957  MEMB      45              0.0000000000
      5563        45  DOPC      H13S           29.2920119104       -4.4942449571        5.5638132000  MEMB      45              0.0000000000
      5564        45  DOPC      C214           27.7385865171       -5.7645357936        4.8259259892  MEMB      45              0.0000000000
      5565        45  DOPC      H14R           26.6709309805       -5.9797699524        5.0366273839  MEMB      45              0.0000000000
      5566        45  DOPC      H14S           28.3215536460       -6.6596438734        5.1415014822  MEMB      45              0.0000000000
      5567        45  DOPC      C215           27.9297100083       -5.5471756645        3.3150590436  MEMB      45              0.0000000000
      5568        45  DOPC      H15R           28.2095884093       -6.5198565691        2.8482136014  MEMB      45              0.0000000000
      5569        45  DOPC      H15S           28.7607058288       -4.8326065209        3.1223312014  MEMB      45              0.0000000000
      5570        45  DOPC      C216           26.6409172421       -5.0576346943        2.6535743561  MEMB      45              0.0000000000
      5571        45  DOPC      H16R           26.3877937073       -4.0404602004        3.0230683922  MEMB      45              0.0000000000
      5572        45  DOPC      H16S           25.8238083613       -5.7542821436        2.9461688319  MEMB      45              0.0000000000
      5573        45  DOPC      C217           26.6848240932       -5.0244853532        1.1338126903  MEMB      45              0.0000000000
      5574        45  DOPC      H17R           26.9356738812       -6.0484850648        0.7804038667  MEMB      45              0.0000000000
      5575        45  DOPC      H17S           27.4918177063       -4.3461711692        0.7975694601  MEMB      45              0.0000000000
      5576        45  DOPC      C218           25.3598410042       -4.5630560295        0.5265875779  MEMB      45              0.0000000000
      5577        45  DOPC      H18R           24.5337799500       -5.2147988309        0.8833453850  MEMB      45              0.0000000000
      5578        45  DOPC      H18S           25.3856560618       -4.6099333101       -0.5821816048  MEMB      45              0.0000000000
      5579        45  DOPC      H18T           25.1426939536       -3.5154530006        0.8249336371  MEMB      45              0.0000000000
      5580        45  DOPC      C33            25.5041015200       -3.6365202242       11.7990030908  MEMB      45              0.0000000000
      5581        45  DOPC      H3X            24.8519615016       -4.2928295305       12.4249543604  MEMB      45              0.0000000000
      5582        45  DOPC      H3Y            25.9054962801       -4.2797562794       10.9847630166  MEMB      45              0.0000000000
      5583        45  DOPC      C34            24.5832166854       -2.5478837345       11.2858934733  MEMB      45              0.0000000000
      5584        45  DOPC      H4X            24.3355382271       -1.8363725302       12.1018628170  MEMB      45              0.0000000000
      5585        45  DOPC      H4Y            23.6161044884       -2.9644487336       10.9701048471  MEMB      45              0.0000000000
      5586        45  DOPC      C35            25.1077105373       -1.8548468856       10.0452513156  MEMB      45              0.0000000000
      5587        45  DOPC      H5X            25.3685016662       -2.6202366899        9.2776148263  MEMB      45              0.0000000000
      5588        45  DOPC      H5Y            26.0212940429       -1.2714068974       10.2914967071  MEMB      45              0.0000000000
      5589        45  DOPC      C36            23.9876836089       -0.9708404034        9.5172596476  MEMB      45              0.0000000000
      5590        45  DOPC      H6X            23.0563872621       -1.5672539963        9.3826206833  MEMB      45              0.0000000000
      5591        45  DOPC      H6Y            23.7693963696       -0.1985055926       10.2897362279  MEMB      45              0.0000000000
      5592        45  DOPC      C37            24.3008369505       -0.2995603389        8.1909365189  MEMB      45              0.0000000000
      5593        45  DOPC      H7X            25.3621936112        0.0257645294        8.1785178353  MEMB      45              0.0000000000
      5594        45  DOPC      H7Y            24.1754942876       -1.0430220128        7.3724728674  MEMB      45              0.0000000000
      5595        45  DOPC      C38            23.3427379024        0.8865516383        8.0243229708  MEMB      45              0.0000000000
      5596        45  DOPC      H8X            23.2039092229        1.3572202323        9.0229481085  MEMB      45              0.0000000000
      5597        45  DOPC      H8Y            22.3444018501        0.4882974828        7.7346402499  MEMB      45              0.0000000000
      5598        45  DOPC      C39            23.8039947351        1.9645794571        7.0913518485  MEMB      45              0.0000000000
      5599        45  DOPC      H9X            24.3577288027        2.7750796980        7.5704827448  MEMB      45              0.0000000000
      5600        45  DOPC      C310           23.7951704631        1.9170978337        5.7584640863  MEMB      45              0.0000000000
      5601        45  DOPC      H10X           24.1615317232        2.7803250303        5.1850406959  MEMB      45              0.0000000000
      5602        45  DOPC      C311           23.3200213308        0.7513938758        4.9487481624  MEMB      45              0.0000000000
      5603        45  DOPC      H11X           22.8104630632        1.0785050502        4.0178512916  MEMB      45              0.0000000000
      5604        45  DOPC      H11Y           22.6068031907        0.1026559128        5.5094690254  MEMB      45              0.0000000000
      5605        45  DOPC      C312           24.5643346855       -0.0809646037        4.6160368641  MEMB      45              0.0000000000
      5606        45  DOPC      H12X           24.2364135412       -0.9329546492        3.9867081693  MEMB      45              0.0000000000
      5607        45  DOPC      H12Y           25.0182116335       -0.5058878107        5.5394067134  MEMB      45              0.0000000000
      5608        45  DOPC      C313           25.6744283800        0.6372513404        3.8370194108  MEMB      45              0.0000000000
      5609        45  DOPC      H13X           25.2194951810        1.2217040514        3.0094143456  MEMB      45              0.0000000000
      5610        45  DOPC      H13Y           26.2280704798        1.3273789420        4.5095824914  MEMB      45              0.0000000000
      5611        45  DOPC      C314           26.6146789369       -0.4279192156        3.2805197296  MEMB      45              0.0000000000
      5612        45  DOPC      H14X           27.2111166473       -0.8568852266        4.1037621343  MEMB      45              0.0000000000
      5613        45  DOPC      H14Y           25.9676359144       -1.2426792039        2.8784162446  MEMB      45              0.0000000000
      5614        45  DOPC      C315           27.5765865693       -0.0379448019        2.1639779448  MEMB      45              0.0000000000
      5615        45  DOPC      H15X           28.4381255086        0.5374799409        2.5657962757  MEMB      45              0.0000000000
      5616        45  DOPC      H15Y           27.0495002776        0.6003632763        1.4195821385  MEMB      45              0.0000000000
      5617        45  DOPC      C316           28.0460373995       -1.3295605429        1.4780874302  MEMB      45              0.0000000000
      5618        45  DOPC      H16X           27.6095734131       -2.2154639605        1.9949207549  MEMB      45              0.0000000000
      5619        45  DOPC      H16Y           27.6246775275       -1.3484192720        0.4592048693  MEMB      45              0.0000000000
      5620        45  DOPC      C317           29.5572124181       -1.5502411881        1.4207691862  MEMB      45              0.0000000000
      5621        45  DOPC      H17X           30.0824031705       -0.5988870334        1.1825973411  MEMB      45              0.0000000000
      5622        45  DOPC      H17Y           29.8894742716       -1.8705891917        2.4351342283  MEMB      45              0.0000000000
      5623        45  DOPC      C318           29.9174154552       -2.6067813371        0.3670080189  MEMB      45              0.0000000000
      5624        45  DOPC      H18X           29.9767004051       -2.1502056602       -0.6416219581  MEMB      45              0.0000000000
      5625        45  DOPC      H18Y           30.8837388902       -3.1005719609        0.5757281452  MEMB      45              0.0000000000
      5626        45  DOPC      H18Z           29.1375277362       -3.3895069751        0.3188116947  MEMB      45              0.0000000000
      5627        46  DOPE      N             -13.4014042978      -27.3127665799       21.9624070536  MEMB      46              0.0000000000
      5628        46  DOPE      HN1           -13.7128463344      -26.3335703584       22.1446876396  MEMB      46              0.0000000000
      5629        46  DOPE      HN2           -13.6400526348      -27.9266396745       22.7648539173  MEMB      46              0.0000000000
      5630        46  DOPE      HN3           -12.3580372738      -27.2481836720       21.8880743824  MEMB      46              0.0000000000
      5631        46  DOPE      C12           -13.9788785853      -27.8761542760       20.6963368778  MEMB      46              0.0000000000
      5632        46  DOPE      H12A          -15.0535369023      -28.0882489309       20.8516634284  MEMB      46              0.0000000000
      5633        46  DOPE      H12B          -13.4439000802      -28.8198088146       20.4613485310  MEMB      46              0.0000000000
      5634        46  DOPE      C11           -13.7765988543      -26.9063656232       19.5461926123  MEMB      46              0.0000000000
      5635        46  DOPE      H11A          -14.3728716597      -25.9784747651       19.7091583859  MEMB      46              0.0000000000
      5636        46  DOPE      H11B          -14.1858659788      -27.4141290682       18.6328023219  MEMB      46              0.0000000000
      5637        46  DOPE      P             -11.9210152371      -26.1622708724       17.9676657343  MEMB      46              0.0000000000
      5638        46  DOPE      O13           -10.6745946762      -25.3824674431       17.9671886771  MEMB      46              0.0000000000
      5639        46  DOPE      O14           -13.0974185464      -25.5641646537       17.3171333081  MEMB      46              0.0000000000
      5640        46  DOPE      O11           -11.6224098761      -27.6255462005       17.4166309041  MEMB      46              0.0000000000
      5641        46  DOPE      O12           -12.3790814375      -26.5808706990       19.4364818113  MEMB      46              0.0000000000
      5642        46  DOPE      C1            -10.4867977276      -28.2637241494       18.0362847780  MEMB      46              0.0000000000
      5643        46  DOPE      HA            -10.7036146572      -28.4955005621       19.1036533680  MEMB      46              0.0000000000
      5644        46  DOPE      HB             -9.5944529692      -27.5927175990       18.0259250905  MEMB      46              0.0000000000
      5645        46  DOPE      C2            -10.0335378962      -29.5918658662       17.3471628637  MEMB      46              0.0000000000
      5646        46  DOPE      HS             -9.0977758678      -29.9061822617       17.8613527012  MEMB      46              0.0000000000
      5647        46  DOPE      O21            -9.8003675542      -29.4741350855       15.9273436400  MEMB      46              0.0000000000
      5648        46  DOPE      C21            -8.7334137597      -28.7743328241       15.6183976437  MEMB      46              0.0000000000
      5649        46  DOPE      O22            -7.9162068594      -28.3470863686       16.4115895999  MEMB      46              0.0000000000
      5650        46  DOPE      C22            -8.6557975605      -28.5216399302       14.1354933622  MEMB      46              0.0000000000
      5651        46  DOPE      H2R            -9.5151341855      -28.9906272586       13.6132579288  MEMB      46              0.0000000000
      5652        46  DOPE      H2S            -7.7039426040      -28.9431843716       13.7498038030  MEMB      46              0.0000000000
      5653        46  DOPE      C3            -11.0482035409      -30.7452120810       17.5573693060  MEMB      46              0.0000000000
      5654        46  DOPE      HX            -10.9481985961      -31.1291087406       18.5906662283  MEMB      46              0.0000000000
      5655        46  DOPE      HY            -10.7354785318      -31.5629601796       16.8969858451  MEMB      46              0.0000000000
      5656        46  DOPE      O31           -12.4195288891      -30.3835103013       17.3244233358  MEMB      46              0.0000000000
      5657        46  DOPE      C31           -12.7202845497      -30.1294770733       16.0528580734  MEMB      46              0.0000000000
      5658        46  DOPE      O32           -12.1006721573      -30.4971165454       15.0710826951  MEMB      46              0.0000000000
      5659        46  DOPE      C32           -14.0342821743      -29.3625565050       16.0006095831  MEMB      46              0.0000000000
      5660        46  DOPE      H2X           -14.8279719228      -30.0885247850       16.2357520636  MEMB      46              0.0000000000
      5661        46  DOPE      H2Y           -14.0064358496      -28.5901093518       16.7947100063  MEMB      46              0.0000000000
      5662        46  DOPE      C23            -8.6676329387      -26.9934139314       14.0224658997  MEMB      46              0.0000000000
      5663        46  DOPE      H3R            -8.6209807763      -26.7025201029       12.9528140504  MEMB      46              0.0000000000
      5664        46  DOPE      H3S            -7.7704870822      -26.5677642393       14.5291007105  MEMB      46              0.0000000000
      5665        46  DOPE      C24            -9.9257932921      -26.4110205903       14.6871279353  MEMB      46              0.0000000000
      5666        46  DOPE      H4R           -10.0347675758      -26.7274538128       15.7437763795  MEMB      46              0.0000000000
      5667        46  DOPE      H4S           -10.8058961024      -26.7815365200       14.1329503129  MEMB      46              0.0000000000
      5668        46  DOPE      C25            -9.9967219895      -24.8930954220       14.6960102258  MEMB      46              0.0000000000
      5669        46  DOPE      H5R            -9.1032483919      -24.4762907160       15.2046008839  MEMB      46              0.0000000000
      5670        46  DOPE      H5S           -10.8870671417      -24.5812076960       15.2898334250  MEMB      46              0.0000000000
      5671        46  DOPE      C26           -10.1224308743      -24.4103116031       13.2680822781  MEMB      46              0.0000000000
      5672        46  DOPE      H6R           -10.1372079403      -25.2989402971       12.5964236672  MEMB      46              0.0000000000
      5673        46  DOPE      H6S            -9.1989343570      -23.8766434247       12.9957333785  MEMB      46              0.0000000000
      5674        46  DOPE      C27           -11.4215489771      -23.6415860737       12.9816493890  MEMB      46              0.0000000000
      5675        46  DOPE      H7R           -11.2689851920      -22.5559982107       13.1401467847  MEMB      46              0.0000000000
      5676        46  DOPE      H7S           -12.2128354406      -23.9520287955       13.6972560616  MEMB      46              0.0000000000
      5677        46  DOPE      C28           -11.8560214296      -23.9911870076       11.5476108269  MEMB      46              0.0000000000
      5678        46  DOPE      H8R           -11.9400070934      -25.0944052941       11.5044665709  MEMB      46              0.0000000000
      5679        46  DOPE      H8S           -11.0186260192      -23.7442097746       10.8652161176  MEMB      46              0.0000000000
      5680        46  DOPE      C29           -13.1325558529      -23.4209934527       11.0171833991  MEMB      46              0.0000000000
      5681        46  DOPE      H9R           -13.8135173721      -22.9338019485       11.7351903849  MEMB      46              0.0000000000
      5682        46  DOPE      C210          -13.4638920174      -23.5463558283        9.7228008463  MEMB      46              0.0000000000
      5683        46  DOPE      H10R          -14.4164686114      -23.1315035204        9.3654633946  MEMB      46              0.0000000000
      5684        46  DOPE      C211          -12.6313463293      -24.2453047601        8.6714760298  MEMB      46              0.0000000000
      5685        46  DOPE      H11R          -12.9488458219      -25.3064455309        8.5983656263  MEMB      46              0.0000000000
      5686        46  DOPE      H11S          -11.5406591522      -24.2497143097        8.8913779914  MEMB      46              0.0000000000
      5687        46  DOPE      C212          -12.8504319329      -23.5754082696        7.3154087244  MEMB      46              0.0000000000
      5688        46  DOPE      H12R          -12.4404011769      -22.5407267100        7.3126708910  MEMB      46              0.0000000000
      5689        46  DOPE      H12S          -13.9492664379      -23.4887618937        7.1398383026  MEMB      46              0.0000000000
      5690        46  DOPE      C213          -12.2737185415      -24.3440153046        6.1211649388  MEMB      46              0.0000000000
      5691        46  DOPE      H13R          -12.4995078981      -25.4287083522        6.2161921553  MEMB      46              0.0000000000
      5692        46  DOPE      H13S          -11.1755143857      -24.2286993682        6.0491804428  MEMB      46              0.0000000000
      5693        46  DOPE      C214          -12.9525388750      -23.7758103192        4.8866340486  MEMB      46              0.0000000000
      5694        46  DOPE      H14R          -12.8266666869      -22.6675103173        4.8706540090  MEMB      46              0.0000000000
      5695        46  DOPE      H14S          -14.0357279749      -23.9995337241        5.0135088096  MEMB      46              0.0000000000
      5696        46  DOPE      C215          -12.5588563108      -24.3349491714        3.5305391421  MEMB      46              0.0000000000
      5697        46  DOPE      H15R          -12.7028664887      -25.4379202843        3.5101926729  MEMB      46              0.0000000000
      5698        46  DOPE      H15S          -11.4991208482      -24.1129924660        3.2886806605  MEMB      46              0.0000000000
      5699        46  DOPE      C216          -13.4928901677      -23.6751420925        2.5125937009  MEMB      46              0.0000000000
      5700        46  DOPE      H16R          -13.2673196224      -22.5936148806        2.4717417033  MEMB      46              0.0000000000
      5701        46  DOPE      H16S          -14.4992880778      -23.7243857038        2.9474254410  MEMB      46              0.0000000000
      5702        46  DOPE      C217          -13.3926972239      -24.3037590374        1.1219987913  MEMB      46              0.0000000000
      5703        46  DOPE      H17R          -13.7306362684      -25.3623859810        1.1138718654  MEMB      46              0.0000000000
      5704        46  DOPE      H17S          -12.3097866959      -24.3189933247        1.0156997987  MEMB      46              0.0000000000
      5705        46  DOPE      C218          -13.9195980610      -23.5237511646       -0.0922517772  MEMB      46              0.0000000000
      5706        46  DOPE      H18R          -14.9885373535      -23.7035430017       -0.2761414148  MEMB      46              0.0000000000
      5707        46  DOPE      H18S          -13.3801595130      -23.8001673455       -1.0153304370  MEMB      46              0.0000000000
      5708        46  DOPE      H18T          -13.8072325004      -22.4350509606        0.0354550991  MEMB      46              0.0000000000
      5709        46  DOPE      C33           -14.2684235633      -28.6915122276       14.6306548986  MEMB      46              0.0000000000
      5710        46  DOPE      H3X           -15.2827924494      -28.2364188163       14.6052398957  MEMB      46              0.0000000000
      5711        46  DOPE      H3Y           -14.1958406585      -29.4256000503       13.7956972702  MEMB      46              0.0000000000
      5712        46  DOPE      C34           -13.2498222722      -27.5811990421       14.4208468027  MEMB      46              0.0000000000
      5713        46  DOPE      H4X           -13.2142456754      -26.9356487462       15.3270263657  MEMB      46              0.0000000000
      5714        46  DOPE      H4Y           -12.2517579819      -28.0564022317       14.3334268280  MEMB      46              0.0000000000
      5715        46  DOPE      C35           -13.5272331821      -26.6682551687       13.2271291723  MEMB      46              0.0000000000
      5716        46  DOPE      H5X           -12.7998547445      -25.8378087095       13.3010722712  MEMB      46              0.0000000000
      5717        46  DOPE      H5Y           -14.5332678113      -26.2238498710       13.3195504076  MEMB      46              0.0000000000
      5718        46  DOPE      C36           -13.3734283127      -27.3173053235       11.8508011938  MEMB      46              0.0000000000
      5719        46  DOPE      H6X           -13.5613757217      -26.5382149705       11.0766950433  MEMB      46              0.0000000000
      5720        46  DOPE      H6Y           -14.1447809361      -28.1039737510       11.7192191084  MEMB      46              0.0000000000
      5721        46  DOPE      C37           -11.9620156505      -27.8859750439       11.6307769793  MEMB      46              0.0000000000
      5722        46  DOPE      H7X           -11.2164512525      -27.1171751225       11.9305044418  MEMB      46              0.0000000000
      5723        46  DOPE      H7Y           -11.7985484270      -28.7604809179       12.3009381092  MEMB      46              0.0000000000
      5724        46  DOPE      C38           -11.7049818264      -28.2641329478       10.1662434458  MEMB      46              0.0000000000
      5725        46  DOPE      H8X           -10.6501927999      -28.5909823815       10.0447880658  MEMB      46              0.0000000000
      5726        46  DOPE      H8Y           -11.8485056418      -27.3599438272        9.5344973568  MEMB      46              0.0000000000
      5727        46  DOPE      C39           -12.6406754335      -29.3811981313        9.8078482216  MEMB      46              0.0000000000
      5728        46  DOPE      H9X           -12.5775646837      -30.2495221601       10.4789830211  MEMB      46              0.0000000000
      5729        46  DOPE      C310          -13.5218016530      -29.4047368720        8.7999868560  MEMB      46              0.0000000000
      5730        46  DOPE      H10X          -14.1227085674      -30.3146947196        8.6574252495  MEMB      46              0.0000000000
      5731        46  DOPE      C311          -13.7829281723      -28.3242001603        7.7817428334  MEMB      46              0.0000000000
      5732        46  DOPE      H11X          -14.8732511281      -28.2338898922        7.5939052044  MEMB      46              0.0000000000
      5733        46  DOPE      H11Y          -13.4530077465      -27.3231155707        8.1251307735  MEMB      46              0.0000000000
      5734        46  DOPE      C312          -13.0573741558      -28.7072208071        6.4779836583  MEMB      46              0.0000000000
      5735        46  DOPE      H12X          -13.0855803728      -29.8158792947        6.3551857131  MEMB      46              0.0000000000
      5736        46  DOPE      H12Y          -11.9859456686      -28.4169101064        6.5542752692  MEMB      46              0.0000000000
      5737        46  DOPE      C313          -13.6858053568      -28.1252284080        5.2001637103  MEMB      46              0.0000000000
      5738        46  DOPE      H13X          -14.7900260027      -28.1036645262        5.3322522815  MEMB      46              0.0000000000
      5739        46  DOPE      H13Y          -13.3510173561      -27.0772477982        5.0485867412  MEMB      46              0.0000000000
      5740        46  DOPE      C314          -13.3601192642      -28.9726573059        3.9517859716  MEMB      46              0.0000000000
      5741        46  DOPE      H14X          -14.1507043242      -28.8133778092        3.1840336058  MEMB      46              0.0000000000
      5742        46  DOPE      H14Y          -13.3840369183      -30.0499915933        4.2290881230  MEMB      46              0.0000000000
      5743        46  DOPE      C315          -12.0033640293      -28.5919355626        3.3433123644  MEMB      46              0.0000000000
      5744        46  DOPE      H15X          -11.4565457630      -27.9882661567        4.1060309958  MEMB      46              0.0000000000
      5745        46  DOPE      H15Y          -12.1559436351      -27.9375507451        2.4552341874  MEMB      46              0.0000000000
      5746        46  DOPE      C316          -11.0640107367      -29.7493141293        2.9621743662  MEMB      46              0.0000000000
      5747        46  DOPE      H16X          -11.4294985711      -30.2441364273        2.0365946203  MEMB      46              0.0000000000
      5748        46  DOPE      H16Y          -11.0630386425      -30.5195143442        3.7666546972  MEMB      46              0.0000000000
      5749        46  DOPE      C317           -9.6345484879      -29.1907165309        2.7959159700  MEMB      46              0.0000000000
      5750        46  DOPE      H17X           -9.7283316434      -28.0828565807        2.6967607762  MEMB      46              0.0000000000
      5751        46  DOPE      H17Y           -9.0574225438      -29.3886272209        3.7271085311  MEMB      46              0.0000000000
      5752        46  DOPE      C318           -8.8036125951      -29.6623401241        1.6013915679  MEMB      46              0.0000000000
      5753        46  DOPE      H18X           -7.8851160159      -30.1765661380        1.9332113335  MEMB      46              0.0000000000
      5754        46  DOPE      H18Y           -9.3614777950      -30.3592144085        0.9490439918  MEMB      46              0.0000000000
      5755        46  DOPE      H18Z           -8.4674444532      -28.8044633230        0.9935023646  MEMB      46              0.0000000000
      5756        47  DOPC      N             -19.9314083645      -20.6904877325       18.0929999566  MEMB      47              0.0000000000
      5757        47  DOPC      C12           -18.8980304565      -21.1756047047       19.1074025495  MEMB      47              0.0000000000
      5758        47  DOPC      H12A          -18.2761388777      -20.3544358701       19.4376265547  MEMB      47              0.0000000000
      5759        47  DOPC      H12B          -18.2170358860      -21.8702748399       18.6108756532  MEMB      47              0.0000000000
      5760        47  DOPC      C13           -21.0483219358      -19.9453130143       18.7665173716  MEMB      47              0.0000000000
      5761        47  DOPC      H13A          -21.5387660371      -20.6164015943       19.4679775925  MEMB      47              0.0000000000
      5762        47  DOPC      H13B          -20.6974150874      -19.0886007858       19.3435854453  MEMB      47              0.0000000000
      5763        47  DOPC      H13C          -21.7774975015      -19.5866056024       18.0509913336  MEMB      47              0.0000000000
      5764        47  DOPC      C14           -20.4492276085      -21.9386815614       17.4333989975  MEMB      47              0.0000000000
      5765        47  DOPC      H14A          -20.7223514056      -22.6707436034       18.1992477715  MEMB      47              0.0000000000
      5766        47  DOPC      H14B          -21.2850084292      -21.7781936897       16.7785112944  MEMB      47              0.0000000000
      5767        47  DOPC      H14C          -19.6484612306      -22.4373510605       16.8884848065  MEMB      47              0.0000000000
      5768        47  DOPC      C15           -19.3313399145      -19.7799357970       17.0737200673  MEMB      47              0.0000000000
      5769        47  DOPC      H15A          -18.6280197606      -20.2993629271       16.4394614311  MEMB      47              0.0000000000
      5770        47  DOPC      H15B          -18.8346636106      -18.9372183646       17.5380933769  MEMB      47              0.0000000000
      5771        47  DOPC      H15C          -20.1119192615      -19.3738740962       16.4400362769  MEMB      47              0.0000000000
      5772        47  DOPC      C11           -19.4285092896      -21.9230090644       20.3733435231  MEMB      47              0.0000000000
      5773        47  DOPC      H11A          -18.5605185809      -22.0671104378       21.0586134117  MEMB      47              0.0000000000
      5774        47  DOPC      H11B          -20.1253654882      -21.2458533838       20.9171074819  MEMB      47              0.0000000000
      5775        47  DOPC      P             -19.1976775255      -24.4850752373       19.8521699895  MEMB      47              0.0000000000
      5776        47  DOPC      O13           -20.0887511347      -25.5594320245       19.3423741796  MEMB      47              0.0000000000
      5777        47  DOPC      O14           -18.4497815624      -24.7608428518       21.1081447298  MEMB      47              0.0000000000
      5778        47  DOPC      O12           -20.0938777058      -23.1707037289       20.0949610991  MEMB      47              0.0000000000
      5779        47  DOPC      O11           -18.1945170730      -23.9402203744       18.7214339094  MEMB      47              0.0000000000
      5780        47  DOPC      C1            -17.6691934703      -24.7658286940       17.6714518396  MEMB      47              0.0000000000
      5781        47  DOPC      HA            -18.4629541492      -24.9701880354       16.9205922942  MEMB      47              0.0000000000
      5782        47  DOPC      HB            -17.3354832283      -25.7490884495       18.0777317038  MEMB      47              0.0000000000
      5783        47  DOPC      C2            -16.4287701140      -24.1216047806       16.9302545423  MEMB      47              0.0000000000
      5784        47  DOPC      HS            -15.6684920888      -23.9088979380       17.7147808019  MEMB      47              0.0000000000
      5785        47  DOPC      O21           -16.8193160388      -22.8956437039       16.2625042083  MEMB      47              0.0000000000
      5786        47  DOPC      C21           -15.8294597819      -22.1155112748       15.8194188713  MEMB      47              0.0000000000
      5787        47  DOPC      O22           -14.6407431505      -22.3483551683       15.8395610567  MEMB      47              0.0000000000
      5788        47  DOPC      C22           -16.4196514482      -20.7198604505       15.5953273830  MEMB      47              0.0000000000
      5789        47  DOPC      H2R           -16.2493178202      -20.1615602867       16.5381202536  MEMB      47              0.0000000000
      5790        47  DOPC      H2S           -17.5028277733      -20.8337207942       15.4011590476  MEMB      47              0.0000000000
      5791        47  DOPC      C3            -15.7754079576      -25.1058209885       15.9049198335  MEMB      47              0.0000000000
      5792        47  DOPC      HX            -15.5149608037      -26.0356116606       16.4571999378  MEMB      47              0.0000000000
      5793        47  DOPC      HY            -14.8024553914      -24.7158393591       15.5289119959  MEMB      47              0.0000000000
      5794        47  DOPC      O31           -16.6779459508      -25.4624524094       14.8454164734  MEMB      47              0.0000000000
      5795        47  DOPC      C31           -16.5874518887      -24.7898207502       13.7090261866  MEMB      47              0.0000000000
      5796        47  DOPC      O32           -15.8179211649      -23.8843433756       13.4484705388  MEMB      47              0.0000000000
      5797        47  DOPC      C32           -17.6455986731      -25.3149266531       12.7296737339  MEMB      47              0.0000000000
      5798        47  DOPC      H2X           -17.2171927571      -25.1969354825       11.7107898428  MEMB      47              0.0000000000
      5799        47  DOPC      H2Y           -17.8306135083      -26.3907277272       12.9113315464  MEMB      47              0.0000000000
      5800        47  DOPC      C23           -15.8024440314      -19.9582068775       14.4152185852  MEMB      47              0.0000000000
      5801        47  DOPC      H3R           -14.7251326305      -20.2087949407       14.2911651463  MEMB      47              0.0000000000
      5802        47  DOPC      H3S           -15.8875691433      -18.8583224181       14.5700056560  MEMB      47              0.0000000000
      5803        47  DOPC      C24           -16.5676368376      -20.3042705439       13.1421539842  MEMB      47              0.0000000000
      5804        47  DOPC      H4R           -17.6233718620      -19.9660777814       13.2212022848  MEMB      47              0.0000000000
      5805        47  DOPC      H4S           -16.5461133089      -21.4089863994       13.0151535609  MEMB      47              0.0000000000
      5806        47  DOPC      C25           -15.9243318737      -19.6998751393       11.9116670636  MEMB      47              0.0000000000
      5807        47  DOPC      H5R           -14.9477349840      -20.2217811523       11.7917464378  MEMB      47              0.0000000000
      5808        47  DOPC      H5S           -15.7477091498      -18.6117227799       12.0527751749  MEMB      47              0.0000000000
      5809        47  DOPC      C26           -16.7086080832      -19.9258074795       10.6283631799  MEMB      47              0.0000000000
      5810        47  DOPC      H6R           -16.4411329701      -19.1122204544        9.9161555811  MEMB      47              0.0000000000
      5811        47  DOPC      H6S           -17.8041844230      -19.8749219027       10.8110770490  MEMB      47              0.0000000000
      5812        47  DOPC      C27           -16.3159486852      -21.2631751419        9.9982233487  MEMB      47              0.0000000000
      5813        47  DOPC      H7R           -16.4087322710      -22.0685043023       10.7590835218  MEMB      47              0.0000000000
      5814        47  DOPC      H7S           -15.2499589713      -21.2249086327        9.7122033009  MEMB      47              0.0000000000
      5815        47  DOPC      C28           -17.1783962526      -21.6284602055        8.7913919759  MEMB      47              0.0000000000
      5816        47  DOPC      H8R           -18.2018324325      -21.6292366713        9.1560763104  MEMB      47              0.0000000000
      5817        47  DOPC      H8S           -16.9292173197      -22.6537682675        8.4450462028  MEMB      47              0.0000000000
      5818        47  DOPC      C29           -17.2571926334      -20.6224745705        7.6974335074  MEMB      47              0.0000000000
      5819        47  DOPC      H9R           -17.2317736550      -19.5728572947        8.0232396625  MEMB      47              0.0000000000
      5820        47  DOPC      C210          -17.3761799312      -20.8856067545        6.3931088164  MEMB      47              0.0000000000
      5821        47  DOPC      H10R          -17.4563604576      -20.0405010873        5.6929000423  MEMB      47              0.0000000000
      5822        47  DOPC      C211          -17.4508831472      -22.2332279323        5.7575004980  MEMB      47              0.0000000000
      5823        47  DOPC      H11R          -18.3476410347      -22.2028879645        5.1140126049  MEMB      47              0.0000000000
      5824        47  DOPC      H11S          -17.5775352450      -23.0468267750        6.5053140779  MEMB      47              0.0000000000
      5825        47  DOPC      C212          -16.2506580424      -22.5960324010        4.8968898017  MEMB      47              0.0000000000
      5826        47  DOPC      H12R          -16.3163688769      -23.6751619786        4.6288474075  MEMB      47              0.0000000000
      5827        47  DOPC      H12S          -15.3361944736      -22.4528662223        5.5149399300  MEMB      47              0.0000000000
      5828        47  DOPC      C213          -16.1995778147      -21.7384080125        3.6291216269  MEMB      47              0.0000000000
      5829        47  DOPC      H13R          -15.1997017052      -21.7915888070        3.1608455188  MEMB      47              0.0000000000
      5830        47  DOPC      H13S          -16.3185056410      -20.6803649604        3.9417581276  MEMB      47              0.0000000000
      5831        47  DOPC      C214          -17.2971078095      -22.0634727470        2.5955555935  MEMB      47              0.0000000000
      5832        47  DOPC      H14R          -17.5518154675      -21.0963337145        2.1006574347  MEMB      47              0.0000000000
      5833        47  DOPC      H14S          -18.2235053961      -22.4411217095        3.0727549033  MEMB      47              0.0000000000
      5834        47  DOPC      C215          -16.8608126546      -23.0260906237        1.4744771277  MEMB      47              0.0000000000
      5835        47  DOPC      H15R          -15.9016301778      -22.6154410117        1.1170219585  MEMB      47              0.0000000000
      5836        47  DOPC      H15S          -17.5989576346      -22.9626986007        0.6462856012  MEMB      47              0.0000000000
      5837        47  DOPC      C216          -16.7174032581      -24.5044791642        1.8786151134  MEMB      47              0.0000000000
      5838        47  DOPC      H16R          -17.2395321798      -24.6166414768        2.8435126926  MEMB      47              0.0000000000
      5839        47  DOPC      H16S          -15.6969861825      -24.8320827331        2.0985692399  MEMB      47              0.0000000000
      5840        47  DOPC      C217          -17.1708666870      -25.5805303018        0.8858687465  MEMB      47              0.0000000000
      5841        47  DOPC      H17R          -18.2596261411      -25.4848705169        0.7132789400  MEMB      47              0.0000000000
      5842        47  DOPC      H17S          -16.9533247007      -26.5385115616        1.4222069947  MEMB      47              0.0000000000
      5843        47  DOPC      C218          -16.4948825835      -25.7279885645       -0.4690324000  MEMB      47              0.0000000000
      5844        47  DOPC      H18R          -16.7614256185      -24.8937658961       -1.1494504919  MEMB      47              0.0000000000
      5845        47  DOPC      H18S          -16.8455234555      -26.6766795494       -0.9131246839  MEMB      47              0.0000000000
      5846        47  DOPC      H18T          -15.3942167068      -25.8077250143       -0.3716538441  MEMB      47              0.0000000000
      5847        47  DOPC      C33           -18.9548989969      -24.4937629825       12.8082877054  MEMB      47              0.0000000000
      5848        47  DOPC      H3X           -19.5256043826      -24.7360347486       13.7324004640  MEMB      47              0.0000000000
      5849        47  DOPC      H3Y           -19.5869165242      -24.7645277777       11.9329457449  MEMB      47              0.0000000000
      5850        47  DOPC      C34           -18.6357592482      -22.9985544176       12.7729301929  MEMB      47              0.0000000000
      5851        47  DOPC      H4X           -17.7626253130      -22.8757805439       12.0912858414  MEMB      47              0.0000000000
      5852        47  DOPC      H4Y           -18.3310910966      -22.6620240627       13.7886833034  MEMB      47              0.0000000000
      5853        47  DOPC      C35           -19.7099708771      -22.0635140452       12.2315848849  MEMB      47              0.0000000000
      5854        47  DOPC      H5X           -19.2761749544      -21.0351192033       12.2575764777  MEMB      47              0.0000000000
      5855        47  DOPC      H5Y           -20.6186598708      -22.0579224470       12.8655338450  MEMB      47              0.0000000000
      5856        47  DOPC      C36           -20.0815339080      -22.3550857222       10.7765297416  MEMB      47              0.0000000000
      5857        47  DOPC      H6X           -19.1982535101      -22.7078577057       10.2341431192  MEMB      47              0.0000000000
      5858        47  DOPC      H6Y           -20.7674554728      -23.2129035662       10.7200749164  MEMB      47              0.0000000000
      5859        47  DOPC      C37           -20.7949514674      -21.1312997628       10.1918164306  MEMB      47              0.0000000000
      5860        47  DOPC      H7X           -21.8152433565      -21.3227669045       10.5803074905  MEMB      47              0.0000000000
      5861        47  DOPC      H7Y           -20.4003151950      -20.1946007418       10.6436417407  MEMB      47              0.0000000000
      5862        47  DOPC      C38           -20.8815517684      -20.9228886364        8.6743681122  MEMB      47              0.0000000000
      5863        47  DOPC      H8X           -19.8737701365      -20.9781385440        8.2254934738  MEMB      47              0.0000000000
      5864        47  DOPC      H8Y           -21.2668384885      -19.9045053689        8.4487028909  MEMB      47              0.0000000000
      5865        47  DOPC      C39           -21.8400665248      -21.9541138743        8.1681795741  MEMB      47              0.0000000000
      5866        47  DOPC      H9X           -22.8984798597      -21.7901307803        8.4139482044  MEMB      47              0.0000000000
      5867        47  DOPC      C310          -21.5061110895      -23.0281812899        7.4649907454  MEMB      47              0.0000000000
      5868        47  DOPC      H10X          -22.2660467982      -23.7944267195        7.3429188301  MEMB      47              0.0000000000
      5869        47  DOPC      C311          -20.1227888186      -23.3980408869        7.0420511157  MEMB      47              0.0000000000
      5870        47  DOPC      H11X          -19.5576508053      -23.9317775561        7.8405131790  MEMB      47              0.0000000000
      5871        47  DOPC      H11Y          -19.5942464588      -22.4512622239        6.8533923827  MEMB      47              0.0000000000
      5872        47  DOPC      C312          -20.1240963793      -24.2189531247        5.7439606064  MEMB      47              0.0000000000
      5873        47  DOPC      H12X          -19.4327914548      -23.7968333549        4.9891091823  MEMB      47              0.0000000000
      5874        47  DOPC      H12Y          -21.1177851187      -24.1768719830        5.2488456486  MEMB      47              0.0000000000
      5875        47  DOPC      C313          -19.6699283052      -25.6630676810        5.9643872588  MEMB      47              0.0000000000
      5876        47  DOPC      H13X          -18.5674172665      -25.6827297015        6.1164658442  MEMB      47              0.0000000000
      5877        47  DOPC      H13Y          -20.1118558371      -26.0560332650        6.8977701928  MEMB      47              0.0000000000
      5878        47  DOPC      C314          -20.0568742494      -26.5213451289        4.7635292288  MEMB      47              0.0000000000
      5879        47  DOPC      H14X          -20.1166117620      -27.5932864018        5.0476106411  MEMB      47              0.0000000000
      5880        47  DOPC      H14Y          -21.0578693567      -26.2091129311        4.3855192918  MEMB      47              0.0000000000
      5881        47  DOPC      C315          -19.0615564578      -26.3452998827        3.6226991447  MEMB      47              0.0000000000
      5882        47  DOPC      H15X          -18.0849057564      -26.8069867960        3.9139162579  MEMB      47              0.0000000000
      5883        47  DOPC      H15Y          -18.9233427231      -25.2696154445        3.4249353233  MEMB      47              0.0000000000
      5884        47  DOPC      C316          -19.5499705279      -26.9842057581        2.3401835372  MEMB      47              0.0000000000
      5885        47  DOPC      H16X          -18.7066640887      -27.2810254427        1.7069514918  MEMB      47              0.0000000000
      5886        47  DOPC      H16Y          -19.9143431854      -27.9659914174        2.6911989957  MEMB      47              0.0000000000
      5887        47  DOPC      C317          -20.6550693071      -26.2547365893        1.5151468463  MEMB      47              0.0000000000
      5888        47  DOPC      H17X          -20.6857215550      -26.7625569827        0.5251885215  MEMB      47              0.0000000000
      5889        47  DOPC      H17Y          -21.5915085159      -26.4877857174        2.0635952858  MEMB      47              0.0000000000
      5890        47  DOPC      C318          -20.7759623121      -24.7406100844        1.2603876031  MEMB      47              0.0000000000
      5891        47  DOPC      H18X          -21.8001304355      -24.5393270541        0.8561828138  MEMB      47              0.0000000000
      5892        47  DOPC      H18Y          -20.6792654061      -24.1800289311        2.2095792448  MEMB      47              0.0000000000
      5893        47  DOPC      H18Z          -20.0647689942      -24.3489518864        0.5056818079  MEMB      47              0.0000000000
      5894        48  CHL1      C3            -25.7095863036       16.4368045559       17.3703277194  MEMB      48              0.0000000000
      5895        48  CHL1      H3            -25.2112016174       17.3928034060       17.1688007060  MEMB      48              0.0000000000
      5896        48  CHL1      O3            -25.7983455934       16.1720165308       18.7688995602  MEMB      48              0.0000000000
      5897        48  CHL1      H3'           -25.9678119041       15.2034855807       18.8221697087  MEMB      48              0.0000000000
      5898        48  CHL1      C4            -27.0519327383       16.6977857644       16.6834427690  MEMB      48              0.0000000000
      5899        48  CHL1      H4A           -27.7182521330       15.8696436645       16.9847221493  MEMB      48              0.0000000000
      5900        48  CHL1      H4B           -27.4576890036       17.6439291838       17.1198759230  MEMB      48              0.0000000000
      5901        48  CHL1      C5            -26.9478145855       16.7813138415       15.1597130890  MEMB      48              0.0000000000
      5902        48  CHL1      C6            -27.4498967741       17.7568215155       14.4063878208  MEMB      48              0.0000000000
      5903        48  CHL1      H6            -27.9342051893       18.6173585827       14.8965951374  MEMB      48              0.0000000000
      5904        48  CHL1      C7            -27.5772620135       17.6164287860       12.9104506577  MEMB      48              0.0000000000
      5905        48  CHL1      H7A           -28.6323811428       17.4831359870       12.6883357119  MEMB      48              0.0000000000
      5906        48  CHL1      H7B           -27.3879225108       18.5426582522       12.3867184192  MEMB      48              0.0000000000
      5907        48  CHL1      C8            -26.9307143976       16.4227884380       12.1724891783  MEMB      48              0.0000000000
      5908        48  CHL1      H8            -27.7093995747       15.6442157839       12.0539265272  MEMB      48              0.0000000000
      5909        48  CHL1      C14           -26.3681010637       16.7744883929       10.8006341728  MEMB      48              0.0000000000
      5910        48  CHL1      H14           -25.3718996673       17.2496614690       10.9776659750  MEMB      48              0.0000000000
      5911        48  CHL1      C15           -27.0914755628       17.8089277019        9.9288493883  MEMB      48              0.0000000000
      5912        48  CHL1      H15A          -28.1574238467       17.6281101063        9.8960351031  MEMB      48              0.0000000000
      5913        48  CHL1      H15B          -26.9796653324       18.8509950740       10.2809453925  MEMB      48              0.0000000000
      5914        48  CHL1      C16           -26.4872203028       17.5959910200        8.5530760711  MEMB      48              0.0000000000
      5915        48  CHL1      H16A          -27.2956758605       17.3916835004        7.8176050182  MEMB      48              0.0000000000
      5916        48  CHL1      H16B          -25.9101769876       18.4931190172        8.2531011562  MEMB      48              0.0000000000
      5917        48  CHL1      C17           -25.5299849178       16.3852955742        8.6666954667  MEMB      48              0.0000000000
      5918        48  CHL1      H17           -24.5313060385       16.8099376603        8.8885057924  MEMB      48              0.0000000000
      5919        48  CHL1      C13           -25.9370284952       15.5998101594        9.9407710827  MEMB      48              0.0000000000
      5920        48  CHL1      C18           -27.1047839738       14.6445068270        9.5963557917  MEMB      48              0.0000000000
      5921        48  CHL1      H18A          -26.7343006627       13.7593667907        9.0410786215  MEMB      48              0.0000000000
      5922        48  CHL1      H18B          -27.6063045264       14.2595535667       10.5046105528  MEMB      48              0.0000000000
      5923        48  CHL1      H18C          -27.8516361730       15.1588503681        8.9608795433  MEMB      48              0.0000000000
      5924        48  CHL1      C12           -24.8143978391       14.9139973935       10.7655417465  MEMB      48              0.0000000000
      5925        48  CHL1      H12A          -24.4605767966       13.9956308317       10.2706429077  MEMB      48              0.0000000000
      5926        48  CHL1      H12B          -23.9512122096       15.6128355285       10.8236977448  MEMB      48              0.0000000000
      5927        48  CHL1      C11           -25.2597923205       14.5824014281       12.2153560708  MEMB      48              0.0000000000
      5928        48  CHL1      H11A          -26.0512591012       13.8080533399       12.1495076303  MEMB      48              0.0000000000
      5929        48  CHL1      H11B          -24.3977260976       14.1442439889       12.7550000560  MEMB      48              0.0000000000
      5930        48  CHL1      C9            -25.8246333283       15.8187605935       12.9834842125  MEMB      48              0.0000000000
      5931        48  CHL1      H9            -24.9950474247       16.5580170511       12.9866350294  MEMB      48              0.0000000000
      5932        48  CHL1      C10           -26.2205803586       15.6453048773       14.4775025321  MEMB      48              0.0000000000
      5933        48  CHL1      C19           -27.2250568880       14.5017792933       14.5925228250  MEMB      48              0.0000000000
      5934        48  CHL1      H19A          -27.4413542768       14.2489249177       15.6474579432  MEMB      48              0.0000000000
      5935        48  CHL1      H19B          -28.1899235486       14.7203137279       14.0909294823  MEMB      48              0.0000000000
      5936        48  CHL1      H19C          -26.7925554319       13.6358063774       14.0894900097  MEMB      48              0.0000000000
      5937        48  CHL1      C1            -24.8990488046       15.4484337542       15.2436108350  MEMB      48              0.0000000000
      5938        48  CHL1      H1A           -24.4515028005       14.5611565181       14.7916275793  MEMB      48              0.0000000000
      5939        48  CHL1      H1B           -24.2374075720       16.3223734208       15.0491902761  MEMB      48              0.0000000000
      5940        48  CHL1      C2            -24.9979849747       15.2482456723       16.7502740943  MEMB      48              0.0000000000
      5941        48  CHL1      H2A           -23.9872515597       15.0993080976       17.1885372145  MEMB      48              0.0000000000
      5942        48  CHL1      H2B           -25.5895236327       14.3329238998       16.9623262310  MEMB      48              0.0000000000
      5943        48  CHL1      C20           -25.4044618569       15.6504193797        7.3481910201  MEMB      48              0.0000000000
      5944        48  CHL1      H20           -26.3949469812       15.2131447898        7.0782705855  MEMB      48              0.0000000000
      5945        48  CHL1      C21           -24.3893715407       14.5443555812        7.5821848352  MEMB      48              0.0000000000
      5946        48  CHL1      H21A          -24.8960849324       13.7291166342        8.1234931582  MEMB      48              0.0000000000
      5947        48  CHL1      H21B          -23.5514609567       14.9096901001        8.2144200459  MEMB      48              0.0000000000
      5948        48  CHL1      H21C          -23.9707545189       14.1638112313        6.6327178738  MEMB      48              0.0000000000
      5949        48  CHL1      C22           -24.9480913003       16.5231310875        6.1547471178  MEMB      48              0.0000000000
      5950        48  CHL1      H22A          -25.2890184686       17.5653436428        6.2580253434  MEMB      48              0.0000000000
      5951        48  CHL1      H22B          -23.8385454416       16.5682052122        6.1366497424  MEMB      48              0.0000000000
      5952        48  CHL1      C23           -25.4786902180       15.9455247648        4.8321547215  MEMB      48              0.0000000000
      5953        48  CHL1      H23A          -25.0131211184       14.9437937581        4.7114834685  MEMB      48              0.0000000000
      5954        48  CHL1      H23B          -26.5814271768       15.8106277374        4.9107910774  MEMB      48              0.0000000000
      5955        48  CHL1      C24           -25.1928065078       16.8082818860        3.5951597276  MEMB      48              0.0000000000
      5956        48  CHL1      H24A          -25.7042989945       17.7855268043        3.7304271295  MEMB      48              0.0000000000
      5957        48  CHL1      H24B          -24.1001765907       16.9956315363        3.5154457809  MEMB      48              0.0000000000
      5958        48  CHL1      C25           -25.7060979422       16.2157796984        2.2632382160  MEMB      48              0.0000000000
      5959        48  CHL1      H25           -26.8229030739       16.2229796575        2.2961117706  MEMB      48              0.0000000000
      5960        48  CHL1      C26           -25.2526074684       17.0831661666        1.0801820522  MEMB      48              0.0000000000
      5961        48  CHL1      H26A          -25.4785172809       18.1505340553        1.2735602897  MEMB      48              0.0000000000
      5962        48  CHL1      H26B          -24.1564797349       16.9823723479        0.9319686861  MEMB      48              0.0000000000
      5963        48  CHL1      H26C          -25.7653534043       16.7706223759        0.1462194204  MEMB      48              0.0000000000
      5964        48  CHL1      C27           -25.2543780382       14.7670685597        2.0501670270  MEMB      48              0.0000000000
      5965        48  CHL1      H27A          -24.1484411499       14.6880470435        2.0657947479  MEMB      48              0.0000000000
      5966        48  CHL1      H27B          -25.6589065493       14.1175025704        2.8527064580  MEMB      48              0.0000000000
      5967        48  CHL1      H27C          -25.6214397514       14.3793711090        1.0775299664  MEMB      48              0.0000000000
      5968        49  23SM      N               7.6179555306       27.2613878552       27.1238615967  MEMB      49              0.0000000000
      5969        49  23SM      C15             9.0176250915       27.4398365455       27.6315974742  MEMB      49              0.0000000000
      5970        49  23SM      H15A            9.3639748367       28.4425385190       27.3834232235  MEMB      49              0.0000000000
      5971        49  23SM      H15B            9.6977653903       26.7640391927       27.1283953214  MEMB      49              0.0000000000
      5972        49  23SM      H15C            9.0994184038       27.2828265045       28.6988354505  MEMB      49              0.0000000000
      5973        49  23SM      C14             7.0868333370       25.9278650642       27.5460870239  MEMB      49              0.0000000000
      5974        49  23SM      H14A            7.6498019445       25.1140622040       27.0908380521  MEMB      49              0.0000000000
      5975        49  23SM      H14B            6.0325910964       25.7908141723       27.3301741500  MEMB      49              0.0000000000
      5976        49  23SM      H14C            7.2580261236       25.7591797516       28.6104149623  MEMB      49              0.0000000000
      5977        49  23SM      C13             6.7684332886       28.3597016889       27.6710713924  MEMB      49              0.0000000000
      5978        49  23SM      H13A            7.0982549047       29.2945024515       27.2220008923  MEMB      49              0.0000000000
      5979        49  23SM      H13B            6.8401456524       28.4558641553       28.7471791332  MEMB      49              0.0000000000
      5980        49  23SM      H13C            5.7332152044       28.2198816367       27.3902184854  MEMB      49              0.0000000000
      5981        49  23SM      C12             7.6366379286       27.3823411970       25.5989019493  MEMB      49              0.0000000000
      5982        49  23SM      H12A            6.6772749013       27.0837820528       25.2036769281  MEMB      49              0.0000000000
      5983        49  23SM      H12B            8.3926272924       26.7136190232       25.1984489805  MEMB      49              0.0000000000
      5984        49  23SM      C11             7.9876367841       28.7603732163       24.9883482407  MEMB      49              0.0000000000
      5985        49  23SM      H11A            7.3384761782       29.5612627663       25.4140804246  MEMB      49              0.0000000000
      5986        49  23SM      H11B            7.7726642509       28.7099201567       23.8925983181  MEMB      49              0.0000000000
      5987        49  23SM      P               9.9584837564       30.4599107793       24.8957335961  MEMB      49              0.0000000000
      5988        49  23SM      O13             8.9655219524       31.4490576673       25.3771730521  MEMB      49              0.0000000000
      5989        49  23SM      O14            11.3265525214       30.5656588109       25.4599268017  MEMB      49              0.0000000000
      5990        49  23SM      O11            10.0749704784       30.5295697509       23.3017044124  MEMB      49              0.0000000000
      5991        49  23SM      O12             9.3715252077       29.0145205062       25.2123014612  MEMB      49              0.0000000000
      5992        49  23SM      C1S            10.5593722283       29.3652870103       22.6151966372  MEMB      49              0.0000000000
      5993        49  23SM      H1S            10.1894353321       28.4311224975       23.0903515482  MEMB      49              0.0000000000
      5994        49  23SM      H1T            11.6711662437       29.3338610659       22.6365397078  MEMB      49              0.0000000000
      5995        49  23SM      NF              9.9794448401       27.9797810371       20.5930132276  MEMB      49              0.0000000000
      5996        49  23SM      HNF            10.3755568536       27.8771687481       19.6871149204  MEMB      49              0.0000000000
      5997        49  23SM      C2S            10.0485934189       29.3364344831       21.1481292538  MEMB      49              0.0000000000
      5998        49  23SM      H2S             9.0163960931       29.7563167975       21.1411274417  MEMB      49              0.0000000000
      5999        49  23SM      C3S            10.9448613747       30.2317396929       20.2384409385  MEMB      49              0.0000000000
      6000        49  23SM      H3S            11.9865519711       29.8364257495       20.2794298966  MEMB      49              0.0000000000
      6001        49  23SM      O3             11.0131378415       31.6136768441       20.5897912914  MEMB      49              0.0000000000
      6002        49  23SM      HO3            10.7334343796       31.6572753435       21.5163857765  MEMB      49              0.0000000000
      6003        49  23SM      C4S            10.3962539985       30.0608162642       18.8427550206  MEMB      49              0.0000000000
      6004        49  23SM      H4S             9.3948729680       30.4885871410       18.7094881332  MEMB      49              0.0000000000
      6005        49  23SM      C5S            10.9801153694       29.4508525494       17.7916293260  MEMB      49              0.0000000000
      6006        49  23SM      H5S            12.0077801251       29.0532334980       17.8631081448  MEMB      49              0.0000000000
      6007        49  23SM      C6S            10.2990726057       29.3285076399       16.4536968283  MEMB      49              0.0000000000
      6008        49  23SM      H6S             9.1979796427       29.4835556475       16.5424198140  MEMB      49              0.0000000000
      6009        49  23SM      H6T            10.4312259784       28.2988207077       16.0492413447  MEMB      49              0.0000000000
      6010        49  23SM      C7S            10.8058756877       30.3175483517       15.4088873415  MEMB      49              0.0000000000
      6011        49  23SM      H7S            11.8863513132       30.1211728707       15.2408631461  MEMB      49              0.0000000000
      6012        49  23SM      H7T            10.6816278631       31.3614688461       15.7806384218  MEMB      49              0.0000000000
      6013        49  23SM      C8S            10.0715500695       30.1754831469       14.0732159603  MEMB      49              0.0000000000
      6014        49  23SM      H8S             8.9762096696       30.2994521938       14.2358775379  MEMB      49              0.0000000000
      6015        49  23SM      H8T            10.2363798660       29.1543864765       13.6605633359  MEMB      49              0.0000000000
      6016        49  23SM      C9S            10.5378030677       31.2191702489       13.0594453463  MEMB      49              0.0000000000
      6017        49  23SM      H9S            11.6259646642       31.0941436860       12.8648354069  MEMB      49              0.0000000000
      6018        49  23SM      H9T            10.3768032080       32.2354781165       13.4847274429  MEMB      49              0.0000000000
      6019        49  23SM      C10S            9.7983469356       31.0949110882       11.7303297836  MEMB      49              0.0000000000
      6020        49  23SM      H10S            8.7912902325       30.6614765945       11.9141528747  MEMB      49              0.0000000000
      6021        49  23SM      H10T           10.3901507641       30.3814539259       11.1190055323  MEMB      49              0.0000000000
      6022        49  23SM      C11S            9.6218475759       32.4395515199       11.0309071044  MEMB      49              0.0000000000
      6023        49  23SM      H11S           10.5301305482       33.0435472946       11.2457688576  MEMB      49              0.0000000000
      6024        49  23SM      H11T            8.7686208175       32.9773596590       11.4995589888  MEMB      49              0.0000000000
      6025        49  23SM      C12S            9.4238521232       32.4328729454        9.5049460917  MEMB      49              0.0000000000
      6026        49  23SM      H12S            9.8450492804       33.4017265537        9.1456855710  MEMB      49              0.0000000000
      6027        49  23SM      H12T            8.3484772787       32.4354621134        9.2302921318  MEMB      49              0.0000000000
      6028        49  23SM      C13S           10.1518839486       31.3398230086        8.7253796459  MEMB      49              0.0000000000
      6029        49  23SM      H13S            9.5442394165       30.4252348503        8.6134653630  MEMB      49              0.0000000000
      6030        49  23SM      H13T           11.0752218588       31.0341462805        9.2543328391  MEMB      49              0.0000000000
      6031        49  23SM      C14S           10.5114906681       31.8328373684        7.3340485791  MEMB      49              0.0000000000
      6032        49  23SM      H14S           10.8020099256       32.9078351840        7.3627664674  MEMB      49              0.0000000000
      6033        49  23SM      H14T            9.6264175273       31.7329599373        6.6661328698  MEMB      49              0.0000000000
      6034        49  23SM      C15S           11.6947053340       31.0866871456        6.7512190675  MEMB      49              0.0000000000
      6035        49  23SM      H15S           11.5895547048       29.9937171693        6.8816110473  MEMB      49              0.0000000000
      6036        49  23SM      H15T           12.5922821467       31.3160974011        7.3325965311  MEMB      49              0.0000000000
      6037        49  23SM      C16S           11.8177905218       31.4372201599        5.2737334050  MEMB      49              0.0000000000
      6038        49  23SM      H16S           12.8849564248       31.4857889867        4.9837805541  MEMB      49              0.0000000000
      6039        49  23SM      H16T           11.3148143897       32.3991689288        5.0487348926  MEMB      49              0.0000000000
      6040        49  23SM      C17S           11.1433670767       30.3113808466        4.5342179512  MEMB      49              0.0000000000
      6041        49  23SM      H17S           10.2122844001       30.0824756804        5.0885486306  MEMB      49              0.0000000000
      6042        49  23SM      H17T           11.8996087702       29.5156717227        4.6694723479  MEMB      49              0.0000000000
      6043        49  23SM      C18S           10.7890805656       30.3833267789        3.0682978307  MEMB      49              0.0000000000
      6044        49  23SM      H18S           10.8422133918       31.4173260778        2.6762313953  MEMB      49              0.0000000000
      6045        49  23SM      H18T            9.7737341223       29.9694071935        2.8882582427  MEMB      49              0.0000000000
      6046        49  23SM      H18U           11.4890137665       29.7079516982        2.5339343640  MEMB      49              0.0000000000
      6047        49  23SM      C1F             9.2059846407       26.9815937558       21.0154459874  MEMB      49              0.0000000000
      6048        49  23SM      OF              8.5097132724       27.0458906319       22.0134250048  MEMB      49              0.0000000000
      6049        49  23SM      C2F             9.2248391249       25.7915714712       20.1434246626  MEMB      49              0.0000000000
      6050        49  23SM      H2F             9.5041938922       24.8920002361       20.7312738042  MEMB      49              0.0000000000
      6051        49  23SM      H2G             9.9828102250       25.9434239372       19.3442867201  MEMB      49              0.0000000000
      6052        49  23SM      C3F             7.8400561299       25.6051015218       19.5104446838  MEMB      49              0.0000000000
      6053        49  23SM      H3F             7.4896359469       26.5282448229       18.9983072536  MEMB      49              0.0000000000
      6054        49  23SM      H3G             7.1011767222       25.3700982900       20.3081112033  MEMB      49              0.0000000000
      6055        49  23SM      C4F             7.8595732376       24.4539398739       18.5092904034  MEMB      49              0.0000000000
      6056        49  23SM      H4F             6.8320640636       24.2516393729       18.1369500957  MEMB      49              0.0000000000
      6057        49  23SM      H4G             8.1808532296       23.5542934368       19.0823376052  MEMB      49              0.0000000000
      6058        49  23SM      C5F             8.8135531475       24.6164604359       17.3089121948  MEMB      49              0.0000000000
      6059        49  23SM      H5F             8.6499374022       23.7576230445       16.6167725714  MEMB      49              0.0000000000
      6060        49  23SM      H5G             9.8626791146       24.5237415345       17.6696077339  MEMB      49              0.0000000000
      6061        49  23SM      C6F             8.6687541117       25.9479153904       16.5590159470  MEMB      49              0.0000000000
      6062        49  23SM      H6F             9.4717739641       26.0108847356       15.7915016248  MEMB      49              0.0000000000
      6063        49  23SM      H6G             8.8218460397       26.7827994150       17.2742851664  MEMB      49              0.0000000000
      6064        49  23SM      C7F             7.3209533108       26.1667778211       15.8543791728  MEMB      49              0.0000000000
      6065        49  23SM      H7F             6.4810107523       25.9904304532       16.5622810894  MEMB      49              0.0000000000
      6066        49  23SM      H7G             7.2259242692       25.4247957314       15.0321936086  MEMB      49              0.0000000000
      6067        49  23SM      C8F             7.2468469124       27.5968366059       15.2899172068  MEMB      49              0.0000000000
      6068        49  23SM      H8F             8.1790883479       27.7953710927       14.7194611714  MEMB      49              0.0000000000
      6069        49  23SM      H8G             7.2352666921       28.3049821475       16.1475481200  MEMB      49              0.0000000000
      6070        49  23SM      C9F             6.0316949890       27.8744714073       14.3927600607  MEMB      49              0.0000000000
      6071        49  23SM      H9F             5.8872589331       28.9694455958       14.2653121646  MEMB      49              0.0000000000
      6072        49  23SM      H9G             5.1300904420       27.4705159532       14.9129199762  MEMB      49              0.0000000000
      6073        49  23SM      C10F            6.1363735762       27.2183695389       13.0056703794  MEMB      49              0.0000000000
      6074        49  23SM      H10F            5.1775732877       27.3342386690       12.4615944765  MEMB      49              0.0000000000
      6075        49  23SM      H10G            6.2745481199       26.1289133587       13.2017974419  MEMB      49              0.0000000000
      6076        49  23SM      C11F            7.2776010970       27.6796323970       12.0733643908  MEMB      49              0.0000000000
      6077        49  23SM      H11F            7.5902624511       26.7759125853       11.5074642801  MEMB      49              0.0000000000
      6078        49  23SM      H11G            8.1618085151       28.0210802442       12.6475949814  MEMB      49              0.0000000000
      6079        49  23SM      C12F            6.9157279334       28.7424501147       11.0187370791  MEMB      49              0.0000000000
      6080        49  23SM      H12F            6.7789178097       29.7232480251       11.5318199854  MEMB      49              0.0000000000
      6081        49  23SM      H12G            5.9616619064       28.5027039241       10.5060812387  MEMB      49              0.0000000000
      6082        49  23SM      C13F            8.0206096560       28.9357133386        9.9629430509  MEMB      49              0.0000000000
      6083        49  23SM      H13F            8.9724534092       29.1015711615       10.5018373718  MEMB      49              0.0000000000
      6084        49  23SM      H13G            7.7746625043       29.8328054288        9.3552380732  MEMB      49              0.0000000000
      6085        49  23SM      C14F            8.3584253974       27.7791327840        9.0253538190  MEMB      49              0.0000000000
      6086        49  23SM      H14F            8.6484961361       26.9131649519        9.6573070749  MEMB      49              0.0000000000
      6087        49  23SM      H14G            9.2649183641       28.0428409576        8.4317099729  MEMB      49              0.0000000000
      6088        49  23SM      C15F            7.2284514022       27.3793687921        8.0779810755  MEMB      49              0.0000000000
      6089        49  23SM      H15F            6.3129633330       27.1746904375        8.6643237800  MEMB      49              0.0000000000
      6090        49  23SM      H15G            7.4691013187       26.4091667877        7.6443436766  MEMB      49              0.0000000000
      6091        49  23SM      C16F            6.9225213235       28.3610625094        6.9374231068  MEMB      49              0.0000000000
      6092        49  23SM      H16F            6.4553004779       29.2488962815        7.4209600477  MEMB      49              0.0000000000
      6093        49  23SM      H16G            6.1704809316       27.9037007357        6.2565527748  MEMB      49              0.0000000000
      6094        49  23SM      C17F            8.1082957787       28.8633360440        6.0912478833  MEMB      49              0.0000000000
      6095        49  23SM      H17F            8.8245444587       29.3965344577        6.7503538265  MEMB      49              0.0000000000
      6096        49  23SM      H17G            7.7066013861       29.6329110228        5.3906070480  MEMB      49              0.0000000000
      6097        49  23SM      C18F            8.8793559013       27.8349347201        5.2320471003  MEMB      49              0.0000000000
      6098        49  23SM      H18F            9.0740104157       28.3495845759        4.2627587659  MEMB      49              0.0000000000
      6099        49  23SM      H18G            8.2699958263       26.9610634591        4.9416627146  MEMB      49              0.0000000000
      6100        49  23SM      C19F           10.2737077185       27.5051361518        5.8141117419  MEMB      49              0.0000000000
      6101        49  23SM      H19F           10.2982353483       26.7976739583        6.6510433774  MEMB      49              0.0000000000
      6102        49  23SM      H19G           10.6058093135       28.4400698888        6.2921461494  MEMB      49              0.0000000000
      6103        49  23SM      C20F           11.3517594539       27.2371020227        4.7617745109  MEMB      49              0.0000000000
      6104        49  23SM      H20F           12.3302938101       27.6491352120        5.0984856402  MEMB      49              0.0000000000
      6105        49  23SM      H20G           11.0377260982       27.7628938484        3.8295493855  MEMB      49              0.0000000000
      6106        49  23SM      C21F           11.6466333999       25.8221700257        4.3906743361  MEMB      49              0.0000000000
      6107        49  23SM      H21F           10.6936283333       25.2729442542        4.2867701085  MEMB      49              0.0000000000
      6108        49  23SM      H21G           12.3056791592       25.3101919000        5.1257537786  MEMB      49              0.0000000000
      6109        49  23SM      C22F           12.1994764034       25.7919176171        2.9950875665  MEMB      49              0.0000000000
      6110        49  23SM      H22F           13.2230669293       26.2192689491        2.9248502695  MEMB      49              0.0000000000
      6111        49  23SM      H22G           11.5162017024       26.3889267886        2.3431381954  MEMB      49              0.0000000000
      6112        49  23SM      C23F           12.1355443621       24.3712676083        2.5350081074  MEMB      49              0.0000000000
      6113        49  23SM      H23F           13.0865910978       23.8461481009        2.7519101196  MEMB      49              0.0000000000
      6114        49  23SM      H23G           11.8945621824       24.3495047862        1.4628067641  MEMB      49              0.0000000000
      6115        49  23SM      H23H           11.3160435694       23.8283905718        3.0390040911  MEMB      49              0.0000000000
      6116        50  23SM      N              28.9232709760      -11.5976093970       26.9216190180  MEMB      50              0.0000000000
      6117        50  23SM      C15            29.1825921635      -10.5714553650       27.9811867062  MEMB      50              0.0000000000
      6118        50  23SM      H15A           28.3122935327      -10.4632985016       28.6144472635  MEMB      50              0.0000000000
      6119        50  23SM      H15B           29.3319558610       -9.6080116338       27.4890558822  MEMB      50              0.0000000000
      6120        50  23SM      H15C           30.0602695118      -10.8296169608       28.5463793473  MEMB      50              0.0000000000
      6121        50  23SM      C14            30.0897246964      -11.6960956551       26.0085084748  MEMB      50              0.0000000000
      6122        50  23SM      H14A           31.0053959734      -11.8739803888       26.5464182104  MEMB      50              0.0000000000
      6123        50  23SM      H14B           30.1764273433      -10.7602924913       25.4487453371  MEMB      50              0.0000000000
      6124        50  23SM      H14C           29.9364921910      -12.4759506659       25.2731575498  MEMB      50              0.0000000000
      6125        50  23SM      C13            28.7106065651      -12.9246356729       27.5375413724  MEMB      50              0.0000000000
      6126        50  23SM      H13A           28.6344923462      -13.6600679068       26.7429759117  MEMB      50              0.0000000000
      6127        50  23SM      H13B           27.7873160905      -12.9529612054       28.0973644361  MEMB      50              0.0000000000
      6128        50  23SM      H13C           29.5470278507      -13.1991654602       28.1622092813  MEMB      50              0.0000000000
      6129        50  23SM      C12            27.7571934752      -11.1761252272       26.0336910859  MEMB      50              0.0000000000
      6130        50  23SM      H12A           26.8245295045      -11.5845461949       26.4050605338  MEMB      50              0.0000000000
      6131        50  23SM      H12B           27.9098293558      -11.5968880561       25.0443296351  MEMB      50              0.0000000000
      6132        50  23SM      C11            27.5451460605       -9.6603111029       25.8358435222  MEMB      50              0.0000000000
      6133        50  23SM      H11A           27.0745227182       -9.2565777534       26.7653754852  MEMB      50              0.0000000000
      6134        50  23SM      H11B           26.8302496288       -9.5265977562       24.9867059147  MEMB      50              0.0000000000
      6135        50  23SM      P              28.7641813399       -7.4585771026       25.3324998703  MEMB      50              0.0000000000
      6136        50  23SM      O13            27.6402726052       -7.0525896896       24.4758054042  MEMB      50              0.0000000000
      6137        50  23SM      O14            28.9553983531       -6.7976122205       26.6462386327  MEMB      50              0.0000000000
      6138        50  23SM      O11            30.0803137915       -7.2077410980       24.4815509169  MEMB      50              0.0000000000
      6139        50  23SM      O12            28.7804351662       -9.0116346524       25.5538468371  MEMB      50              0.0000000000
      6140        50  23SM      C1S            30.6196119543       -8.1509364217       23.5460179908  MEMB      50              0.0000000000
      6141        50  23SM      H1S            30.6550881986       -9.1712410754       23.9864774533  MEMB      50              0.0000000000
      6142        50  23SM      H1T            31.6701418817       -7.8588101961       23.3240952053  MEMB      50              0.0000000000
      6143        50  23SM      NF             30.4372351033       -9.4199286317       21.4406309567  MEMB      50              0.0000000000
      6144        50  23SM      HNF            30.9678365484       -9.1815353219       20.6332082990  MEMB      50              0.0000000000
      6145        50  23SM      C2S            29.8616085949       -8.2875647394       22.1816219612  MEMB      50              0.0000000000
      6146        50  23SM      H2S            28.7848827565       -8.4867902002       22.4005324152  MEMB      50              0.0000000000
      6147        50  23SM      C3S            29.8938940058       -6.9968435146       21.3110151689  MEMB      50              0.0000000000
      6148        50  23SM      H3S            30.9563166920       -6.7255417302       21.1112863526  MEMB      50              0.0000000000
      6149        50  23SM      O3             29.2831597405       -5.8139234876       21.8157977068  MEMB      50              0.0000000000
      6150        50  23SM      HO3            29.0994836728       -6.0152037949       22.7446081150  MEMB      50              0.0000000000
      6151        50  23SM      C4S            29.3097426256       -7.4256432619       19.9766075660  MEMB      50              0.0000000000
      6152        50  23SM      H4S            30.1017086349       -7.7427203161       19.2890144404  MEMB      50              0.0000000000
      6153        50  23SM      C5S            28.0233874656       -7.5391905095       19.5749730046  MEMB      50              0.0000000000
      6154        50  23SM      H5S            27.2080152159       -7.2414676017       20.2584409846  MEMB      50              0.0000000000
      6155        50  23SM      C6S            27.6216264911       -8.0121280094       18.1926237002  MEMB      50              0.0000000000
      6156        50  23SM      H6S            26.6208509213       -7.6012893754       17.9254522581  MEMB      50              0.0000000000
      6157        50  23SM      H6T            27.5319842826       -9.1204960783       18.1665860875  MEMB      50              0.0000000000
      6158        50  23SM      C7S            28.6016814181       -7.5540795961       17.1022533684  MEMB      50              0.0000000000
      6159        50  23SM      H7S            29.6753017615       -7.7157146931       17.3443674704  MEMB      50              0.0000000000
      6160        50  23SM      H7T            28.4230189858       -6.4706645769       17.0346931174  MEMB      50              0.0000000000
      6161        50  23SM      C8S            28.3953704071       -8.0991795481       15.6925985197  MEMB      50              0.0000000000
      6162        50  23SM      H8S            27.3378978465       -7.9914010592       15.3644396338  MEMB      50              0.0000000000
      6163        50  23SM      H8T            28.6798419831       -9.1709125160       15.6421721235  MEMB      50              0.0000000000
      6164        50  23SM      C9S            29.3276859819       -7.3623518659       14.7298111022  MEMB      50              0.0000000000
      6165        50  23SM      H9S            30.3805493428       -7.6062090804       14.9947030365  MEMB      50              0.0000000000
      6166        50  23SM      H9T            29.2278005133       -6.2639845525       14.8678249440  MEMB      50              0.0000000000
      6167        50  23SM      C10S           29.1150448955       -7.7778843831       13.2702748429  MEMB      50              0.0000000000
      6168        50  23SM      H10S           28.0576015908       -8.0622904301       13.0834422042  MEMB      50              0.0000000000
      6169        50  23SM      H10T           29.7369467206       -8.6808310008       13.1058940444  MEMB      50              0.0000000000
      6170        50  23SM      C11S           29.5390824343       -6.6366835093       12.3425030350  MEMB      50              0.0000000000
      6171        50  23SM      H11S           30.5881270077       -6.3751155343       12.6102700636  MEMB      50              0.0000000000
      6172        50  23SM      H11T           28.8876151028       -5.7698428528       12.5800252887  MEMB      50              0.0000000000
      6173        50  23SM      C12S           29.4758779018       -6.8941842435       10.8313479248  MEMB      50              0.0000000000
      6174        50  23SM      H12S           28.4342353577       -7.0994035015       10.5013455447  MEMB      50              0.0000000000
      6175        50  23SM      H12T           30.0717043184       -7.8054375959       10.5993340040  MEMB      50              0.0000000000
      6176        50  23SM      C13S           30.0594160661       -5.7014438776       10.0395271538  MEMB      50              0.0000000000
      6177        50  23SM      H13S           30.9199447419       -5.2852339694       10.6098658853  MEMB      50              0.0000000000
      6178        50  23SM      H13T           29.2955868721       -4.8965124671        9.9599583565  MEMB      50              0.0000000000
      6179        50  23SM      C14S           30.5397536638       -6.1717147935        8.6631295212  MEMB      50              0.0000000000
      6180        50  23SM      H14S           29.6527354563       -6.5806563336        8.1277549667  MEMB      50              0.0000000000
      6181        50  23SM      H14T           31.2513691494       -7.0138615663        8.8302297587  MEMB      50              0.0000000000
      6182        50  23SM      C15S           31.2435676139       -5.1820385509        7.7149874013  MEMB      50              0.0000000000
      6183        50  23SM      H15S           32.1617965332       -4.7558674259        8.1753449200  MEMB      50              0.0000000000
      6184        50  23SM      H15T           30.5657306993       -4.3343232870        7.4744202868  MEMB      50              0.0000000000
      6185        50  23SM      C16S           31.5924452622       -5.9792421939        6.4426328249  MEMB      50              0.0000000000
      6186        50  23SM      H16S           30.7438201512       -6.6824982074        6.2735816266  MEMB      50              0.0000000000
      6187        50  23SM      H16T           32.4953462378       -6.6056217172        6.6191359147  MEMB      50              0.0000000000
      6188        50  23SM      C17S           31.7559059169       -5.2068368226        5.1311782777  MEMB      50              0.0000000000
      6189        50  23SM      H17S           32.8257522342       -4.9426720762        5.0622802027  MEMB      50              0.0000000000
      6190        50  23SM      H17T           31.2149147715       -4.2411724438        5.1394053148  MEMB      50              0.0000000000
      6191        50  23SM      C18S           31.2740915254       -6.0244847992        3.9167583127  MEMB      50              0.0000000000
      6192        50  23SM      H18S           32.0229000920       -6.7910671250        3.6283982543  MEMB      50              0.0000000000
      6193        50  23SM      H18T           31.0822547235       -5.3853439438        3.0290760554  MEMB      50              0.0000000000
      6194        50  23SM      H18U           30.3271738717       -6.5538562545        4.1505599758  MEMB      50              0.0000000000
      6195        50  23SM      C1F            29.8812094467      -10.6270033248       21.5272733118  MEMB      50              0.0000000000
      6196        50  23SM      OF             28.9168830960      -10.8300340483       22.2454509554  MEMB      50              0.0000000000
      6197        50  23SM      C2F            30.3737841827      -11.7076395425       20.6111411251  MEMB      50              0.0000000000
      6198        50  23SM      H2F            29.8177880712      -12.6403168120       20.8594608732  MEMB      50              0.0000000000
      6199        50  23SM      H2G            31.4479297383      -11.9123075752       20.7869677154  MEMB      50              0.0000000000
      6200        50  23SM      C3F            30.1071765167      -11.3512117459       19.1281868885  MEMB      50              0.0000000000
      6201        50  23SM      H3F            30.6474078365      -10.4251031513       18.8429627073  MEMB      50              0.0000000000
      6202        50  23SM      H3G            29.0170795927      -11.1571570216       18.9920726957  MEMB      50              0.0000000000
      6203        50  23SM      C4F            30.5060728990      -12.4937773857       18.1795799849  MEMB      50              0.0000000000
      6204        50  23SM      H4F            29.8690971279      -13.3756775625       18.4299123224  MEMB      50              0.0000000000
      6205        50  23SM      H4G            31.5505918292      -12.8203941524       18.3553652193  MEMB      50              0.0000000000
      6206        50  23SM      C5F            30.3142062465      -12.1774271994       16.6852715068  MEMB      50              0.0000000000
      6207        50  23SM      H5F            29.2511009846      -11.8968482487       16.5155488438  MEMB      50              0.0000000000
      6208        50  23SM      H5G            30.5027980184      -13.1158676932       16.1142100226  MEMB      50              0.0000000000
      6209        50  23SM      C6F            31.2183516074      -11.0789521700       16.0897631535  MEMB      50              0.0000000000
      6210        50  23SM      H6F            32.2832664208      -11.3036879070       16.3060885568  MEMB      50              0.0000000000
      6211        50  23SM      H6G            30.9751913516      -10.0924384366       16.5408274696  MEMB      50              0.0000000000
      6212        50  23SM      C7F            31.0413837932      -10.9829135610       14.5631796125  MEMB      50              0.0000000000
      6213        50  23SM      H7F            30.0174730423      -10.6037511089       14.3442173200  MEMB      50              0.0000000000
      6214        50  23SM      H7G            31.1108658303      -12.0039707441       14.1261169576  MEMB      50              0.0000000000
      6215        50  23SM      C8F            32.0649435907      -10.0904211264       13.8400008808  MEMB      50              0.0000000000
      6216        50  23SM      H8F            33.0999709609      -10.3541538130       14.1455289658  MEMB      50              0.0000000000
      6217        50  23SM      H8G            31.8873256045       -9.0322189909       14.1337495257  MEMB      50              0.0000000000
      6218        50  23SM      C9F            31.9497139997      -10.2248268403       12.3096604544  MEMB      50              0.0000000000
      6219        50  23SM      H9F            30.8683566501      -10.2407485881       12.0460515996  MEMB      50              0.0000000000
      6220        50  23SM      H9G            32.3755906192      -11.1996873559       11.9873391469  MEMB      50              0.0000000000
      6221        50  23SM      C10F           32.6035451288       -9.0698918652       11.5310417144  MEMB      50              0.0000000000
      6222        50  23SM      H10F           32.6458797496       -8.1719423625       12.1868734315  MEMB      50              0.0000000000
      6223        50  23SM      H10G           31.9637463487       -8.8066042576       10.6625111650  MEMB      50              0.0000000000
      6224        50  23SM      C11F           34.0089239735       -9.4003373487       11.0140331092  MEMB      50              0.0000000000
      6225        50  23SM      H11F           34.5657050469       -9.8995547654       11.8372378488  MEMB      50              0.0000000000
      6226        50  23SM      H11G           34.5389800372       -8.4538570933       10.7573941832  MEMB      50              0.0000000000
      6227        50  23SM      C12F           34.0416237484      -10.3182881268        9.7810456455  MEMB      50              0.0000000000
      6228        50  23SM      H12F           33.4961510838      -11.2620706905       10.0035578906  MEMB      50              0.0000000000
      6229        50  23SM      H12G           35.1037998973      -10.5889320032        9.5767707189  MEMB      50              0.0000000000
      6230        50  23SM      C13F           33.4564838514       -9.6854993600        8.5114483593  MEMB      50              0.0000000000
      6231        50  23SM      H13F           33.9151884390       -8.6828625592        8.3515242478  MEMB      50              0.0000000000
      6232        50  23SM      H13G           32.3623939598       -9.5376085975        8.6392078790  MEMB      50              0.0000000000
      6233        50  23SM      C14F           33.7237802946      -10.5545033439        7.2754706220  MEMB      50              0.0000000000
      6234        50  23SM      H14F           33.3268604431      -11.5799608644        7.4486497708  MEMB      50              0.0000000000
      6235        50  23SM      H14G           34.8264929898      -10.6433326201        7.1414682273  MEMB      50              0.0000000000
      6236        50  23SM      C15F           33.1078082881       -9.9936340032        5.9866342455  MEMB      50              0.0000000000
      6237        50  23SM      H15F           33.5216320853      -10.5637161186        5.1254757837  MEMB      50              0.0000000000
      6238        50  23SM      H15G           33.4071971987       -8.9308622475        5.8600216249  MEMB      50              0.0000000000
      6239        50  23SM      C16F           31.5754650518      -10.0809949751        5.9631529346  MEMB      50              0.0000000000
      6240        50  23SM      H16F           31.1732493530       -9.4408643213        6.7802122097  MEMB      50              0.0000000000
      6241        50  23SM      H16G           31.2599894423      -11.1234951476        6.1788176122  MEMB      50              0.0000000000
      6242        50  23SM      C17F           30.9720953988       -9.5889100864        4.6378575162  MEMB      50              0.0000000000
      6243        50  23SM      H17F           31.4171907954       -8.5971850184        4.4280220674  MEMB      50              0.0000000000
      6244        50  23SM      H17G           29.8767650303       -9.4450360142        4.7573736066  MEMB      50              0.0000000000
      6245        50  23SM      C18F           31.2322676569      -10.4901323493        3.4214734395  MEMB      50              0.0000000000
      6246        50  23SM      H18F           32.3322344293      -10.5224514392        3.2531063102  MEMB      50              0.0000000000
      6247        50  23SM      H18G           30.7903772413      -10.0275854239        2.5130699250  MEMB      50              0.0000000000
      6248        50  23SM      C19F           30.6947426912      -11.9180733426        3.5912135626  MEMB      50              0.0000000000
      6249        50  23SM      H19F           31.1522852738      -12.3519513225        4.5053690529  MEMB      50              0.0000000000
      6250        50  23SM      H19G           31.0143050989      -12.5558347326        2.7393025513  MEMB      50              0.0000000000
      6251        50  23SM      C20F           29.1734003183      -12.0500265041        3.7037555491  MEMB      50              0.0000000000
      6252        50  23SM      H20F           28.7158975369      -11.2196587748        4.2742416060  MEMB      50              0.0000000000
      6253        50  23SM      H20G           28.9942205450      -12.9848055906        4.2855020843  MEMB      50              0.0000000000
      6254        50  23SM      C21F           28.5076827584      -12.2560175508        2.3395002503  MEMB      50              0.0000000000
      6255        50  23SM      H21F           27.6228929507      -12.9168800234        2.4720090596  MEMB      50              0.0000000000
      6256        50  23SM      H21G           29.2183390180      -12.7892162498        1.6708552839  MEMB      50              0.0000000000
      6257        50  23SM      C22F           28.0291898254      -10.9916670402        1.6273566534  MEMB      50              0.0000000000
      6258        50  23SM      H22F           28.8235181082      -10.2140783138        1.6326550423  MEMB      50              0.0000000000
      6259        50  23SM      H22G           27.1528716264      -10.5744745339        2.1737913305  MEMB      50              0.0000000000
      6260        50  23SM      C23F           27.6455133378      -11.3130735749        0.1821994644  MEMB      50              0.0000000000
      6261        50  23SM      H23F           26.9525272277      -12.1828964941        0.1579326667  MEMB      50              0.0000000000
      6262        50  23SM      H23G           28.5527019069      -11.5843020619       -0.4011653379  MEMB      50              0.0000000000
      6263        50  23SM      H23H           27.1537800404      -10.4490118748       -0.3095499935  MEMB      50              0.0000000000
      6264        51  DOPE      N              29.4359873386        7.2009236417       22.1005915465  MEMB      51              0.0000000000
      6265        51  DOPE      HN1            29.6801529950        7.0574632813       23.1096856561  MEMB      51              0.0000000000
      6266        51  DOPE      HN2            29.4345238008        8.2140216844       21.8718578299  MEMB      51              0.0000000000
      6267        51  DOPE      HN3            28.4853153286        6.8204867056       21.8793753934  MEMB      51              0.0000000000
      6268        51  DOPE      C12            30.4438355438        6.5248953928       21.2004476963  MEMB      51              0.0000000000
      6269        51  DOPE      H12A           30.2085063489        5.4500062838       21.1649733725  MEMB      51              0.0000000000
      6270        51  DOPE      H12B           31.4489462744        6.6536687158       21.6369529492  MEMB      51              0.0000000000
      6271        51  DOPE      C11            30.4364777990        7.0931924240       19.7797348920  MEMB      51              0.0000000000
      6272        51  DOPE      H11A           31.1050272895        6.4625383581       19.1409185319  MEMB      51              0.0000000000
      6273        51  DOPE      H11B           30.8830467145        8.1154190144       19.8155765802  MEMB      51              0.0000000000
      6274        51  DOPE      P              28.9783381097        7.8281059670       17.8230729777  MEMB      51              0.0000000000
      6275        51  DOPE      O13            27.5334958221        7.8462191733       17.4953366472  MEMB      51              0.0000000000
      6276        51  DOPE      O14            29.9281588555        7.2336245527       16.8738324119  MEMB      51              0.0000000000
      6277        51  DOPE      O11            29.4649935667        9.2847470142       18.2343539992  MEMB      51              0.0000000000
      6278        51  DOPE      O12            29.1050200429        7.1106277867       19.2561886776  MEMB      51              0.0000000000
      6279        51  DOPE      C1             28.8191588633       10.0994294140       19.2152977867  MEMB      51              0.0000000000
      6280        51  DOPE      HA             29.5367516456       10.4061056805       20.0054174954  MEMB      51              0.0000000000
      6281        51  DOPE      HB             27.9937260312        9.5412757702       19.7250226332  MEMB      51              0.0000000000
      6282        51  DOPE      C2             28.1412239582       11.3674567021       18.6115243434  MEMB      51              0.0000000000
      6283        51  DOPE      HS             27.4114419190       11.6963268548       19.3819031740  MEMB      51              0.0000000000
      6284        51  DOPE      O21            27.5188903078       11.0648465068       17.3833501487  MEMB      51              0.0000000000
      6285        51  DOPE      C21            26.2710282604       10.7126845345       17.4400312458  MEMB      51              0.0000000000
      6286        51  DOPE      O22            25.6744635996       10.4050280895       18.4621255423  MEMB      51              0.0000000000
      6287        51  DOPE      C22            25.7829899861       10.9626927182       16.0225782470  MEMB      51              0.0000000000
      6288        51  DOPE      H2R            26.2710947201       11.8950483139       15.6489961368  MEMB      51              0.0000000000
      6289        51  DOPE      H2S            24.7011485218       11.1290726169       15.9877602911  MEMB      51              0.0000000000
      6290        51  DOPE      C3             28.9957102154       12.6161889499       18.2600712952  MEMB      51              0.0000000000
      6291        51  DOPE      HX             29.5021211311       12.9471930357       19.1876053771  MEMB      51              0.0000000000
      6292        51  DOPE      HY             28.2898916477       13.4457281445       18.0171544326  MEMB      51              0.0000000000
      6293        51  DOPE      O31            29.9308865733       12.3667122156       17.1702786037  MEMB      51              0.0000000000
      6294        51  DOPE      C31            29.5317080588       12.7424796416       15.9463875591  MEMB      51              0.0000000000
      6295        51  DOPE      O32            28.5928489162       13.4685709945       15.6902430347  MEMB      51              0.0000000000
      6296        51  DOPE      C32            30.4749298363       12.2062317752       14.8487827775  MEMB      51              0.0000000000
      6297        51  DOPE      H2X            30.7792751664       13.0972307021       14.2626939882  MEMB      51              0.0000000000
      6298        51  DOPE      H2Y            31.3640803146       11.7366220816       15.2923413555  MEMB      51              0.0000000000
      6299        51  DOPE      C23            26.1395152207        9.8060846284       15.1006471053  MEMB      51              0.0000000000
      6300        51  DOPE      H3R            25.3527884714        9.0239718405       15.2217777571  MEMB      51              0.0000000000
      6301        51  DOPE      H3S            27.1101856297        9.3250290504       15.3671488243  MEMB      51              0.0000000000
      6302        51  DOPE      C24            26.1970157850       10.2553968256       13.6446531827  MEMB      51              0.0000000000
      6303        51  DOPE      H4R            27.2033717280       10.5886156709       13.3611142930  MEMB      51              0.0000000000
      6304        51  DOPE      H4S            25.4906334127       11.0853404213       13.4299483965  MEMB      51              0.0000000000
      6305        51  DOPE      C25            25.8834856286        9.0441399631       12.8231725373  MEMB      51              0.0000000000
      6306        51  DOPE      H5R            24.8126146717        8.8221487536       12.9674184536  MEMB      51              0.0000000000
      6307        51  DOPE      H5S            26.4353269962        8.1824516432       13.2694185574  MEMB      51              0.0000000000
      6308        51  DOPE      C26            26.2328545329        9.1017893206       11.3475278302  MEMB      51              0.0000000000
      6309        51  DOPE      H6R            25.5735022681        8.2979921863       11.0062805909  MEMB      51              0.0000000000
      6310        51  DOPE      H6S            27.2710491107        8.7993683021       11.1303901692  MEMB      51              0.0000000000
      6311        51  DOPE      C27            25.9068452487       10.3130064857       10.4824609345  MEMB      51              0.0000000000
      6312        51  DOPE      H7R            26.7352765311       11.0510532463       10.5855552581  MEMB      51              0.0000000000
      6313        51  DOPE      H7S            24.9786552529       10.8124286650       10.8380586006  MEMB      51              0.0000000000
      6314        51  DOPE      C28            25.8061470826        9.8276466755        9.0038724927  MEMB      51              0.0000000000
      6315        51  DOPE      H8R            26.7790412992        9.4279472307        8.6955550105  MEMB      51              0.0000000000
      6316        51  DOPE      H8S            25.5656888111       10.7048947124        8.3763236703  MEMB      51              0.0000000000
      6317        51  DOPE      C29            24.7828821581        8.7410218701        8.8399468862  MEMB      51              0.0000000000
      6318        51  DOPE      H9R            24.0108030062        8.9327986051        9.5561097738  MEMB      51              0.0000000000
      6319        51  DOPE      C210           24.6767617594        7.5470404296        8.2406250410  MEMB      51              0.0000000000
      6320        51  DOPE      H10R           23.7216246953        7.0131133388        8.3652583945  MEMB      51              0.0000000000
      6321        51  DOPE      C211           25.6024381700        6.7348096127        7.4071238180  MEMB      51              0.0000000000
      6322        51  DOPE      H11R           26.0559155194        6.0110969226        8.0940467129  MEMB      51              0.0000000000
      6323        51  DOPE      H11S           26.4583761242        7.3052626933        7.0066683218  MEMB      51              0.0000000000
      6324        51  DOPE      C212           24.7718396879        5.9569034160        6.3533471841  MEMB      51              0.0000000000
      6325        51  DOPE      H12R           23.7251637901        5.7975802974        6.7020844808  MEMB      51              0.0000000000
      6326        51  DOPE      H12S           25.1228822681        4.9096092026        6.2828554834  MEMB      51              0.0000000000
      6327        51  DOPE      C213           24.7201846657        6.6169174722        4.9496215136  MEMB      51              0.0000000000
      6328        51  DOPE      H13R           23.6987516800        7.0220992300        4.8946708666  MEMB      51              0.0000000000
      6329        51  DOPE      H13S           24.7484503208        5.8388000115        4.1664333244  MEMB      51              0.0000000000
      6330        51  DOPE      C214           25.7948905056        7.7201659768        4.7115616522  MEMB      51              0.0000000000
      6331        51  DOPE      H14R           26.7960587331        7.2519256614        4.8330743828  MEMB      51              0.0000000000
      6332        51  DOPE      H14S           25.6655716198        8.4795114427        5.5190464964  MEMB      51              0.0000000000
      6333        51  DOPE      C215           25.8509786687        8.5792653805        3.4210688830  MEMB      51              0.0000000000
      6334        51  DOPE      H15R           26.8281176786        9.1130950058        3.4157723435  MEMB      51              0.0000000000
      6335        51  DOPE      H15S           25.1024064873        9.3939319585        3.4887433393  MEMB      51              0.0000000000
      6336        51  DOPE      C216           25.7093790772        7.8421804571        2.0847639562  MEMB      51              0.0000000000
      6337        51  DOPE      H16R           24.8799175268        7.1026941385        2.1362931850  MEMB      51              0.0000000000
      6338        51  DOPE      H16S           26.6553050298        7.2787008728        1.9178353018  MEMB      51              0.0000000000
      6339        51  DOPE      C217           25.4617303282        8.7793173151        0.8825390214  MEMB      51              0.0000000000
      6340        51  DOPE      H17R           25.7806168911        8.2651445323       -0.0490474925  MEMB      51              0.0000000000
      6341        51  DOPE      H17S           26.0901377490        9.6927584222        0.9703770932  MEMB      51              0.0000000000
      6342        51  DOPE      C218           23.9905881079        9.1414027595        0.6865467825  MEMB      51              0.0000000000
      6343        51  DOPE      H18R           23.6677236123        9.8911566414        1.4206679758  MEMB      51              0.0000000000
      6344        51  DOPE      H18S           23.3634886144        8.2534478216        0.8801726565  MEMB      51              0.0000000000
      6345        51  DOPE      H18T           23.7748677650        9.5260494651       -0.3326407165  MEMB      51              0.0000000000
      6346        51  DOPE      C33            29.7799146000       11.1728349561       13.9261231213  MEMB      51              0.0000000000
      6347        51  DOPE      H3X            30.1278777966       11.2014183228       12.8730156881  MEMB      51              0.0000000000
      6348        51  DOPE      H3Y            28.7262706240       11.4959476990       13.9064160535  MEMB      51              0.0000000000
      6349        51  DOPE      C34            29.9467204284        9.7583161996       14.5135577778  MEMB      51              0.0000000000
      6350        51  DOPE      H4X            30.9987170060        9.6024006678       14.8343929776  MEMB      51              0.0000000000
      6351        51  DOPE      H4Y            29.3264863494        9.7815836794       15.4394671406  MEMB      51              0.0000000000
      6352        51  DOPE      C35            29.4922170171        8.5233895434       13.6992958483  MEMB      51              0.0000000000
      6353        51  DOPE      H5X            28.4559600257        8.6671888361       13.3547013674  MEMB      51              0.0000000000
      6354        51  DOPE      H5Y            29.4795342911        7.6570983024       14.4087117697  MEMB      51              0.0000000000
      6355        51  DOPE      C36            30.3738188268        8.1204917685       12.5049091494  MEMB      51              0.0000000000
      6356        51  DOPE      H6X            31.2878748162        7.6360048684       12.9124939879  MEMB      51              0.0000000000
      6357        51  DOPE      H6Y            30.6219922817        9.0300598858       11.9238628202  MEMB      51              0.0000000000
      6358        51  DOPE      C37            29.7013893385        7.1340794257       11.5479160184  MEMB      51              0.0000000000
      6359        51  DOPE      H7X            29.3774964904        6.2742947240       12.1759798598  MEMB      51              0.0000000000
      6360        51  DOPE      H7Y            28.8030202903        7.6245666953       11.1346685006  MEMB      51              0.0000000000
      6361        51  DOPE      C38            30.5069812801        6.6089725689       10.3354095103  MEMB      51              0.0000000000
      6362        51  DOPE      H8X            29.8342406637        6.0322470246        9.6695516297  MEMB      51              0.0000000000
      6363        51  DOPE      H8Y            31.2642156364        5.8876878445       10.7072896719  MEMB      51              0.0000000000
      6364        51  DOPE      C39            31.1980272516        7.6544812429        9.5206262941  MEMB      51              0.0000000000
      6365        51  DOPE      H9X            32.2775618221        7.6308734951        9.7135351458  MEMB      51              0.0000000000
      6366        51  DOPE      C310           30.7109073904        8.4798125507        8.5696941487  MEMB      51              0.0000000000
      6367        51  DOPE      H10X           31.3834145628        9.2375222800        8.1369163825  MEMB      51              0.0000000000
      6368        51  DOPE      C311           29.2969067700        8.5601971871        8.0662185907  MEMB      51              0.0000000000
      6369        51  DOPE      H11X           28.7719334718        7.5904048618        8.2050945564  MEMB      51              0.0000000000
      6370        51  DOPE      H11Y           28.7612500386        9.3150956011        8.6799266396  MEMB      51              0.0000000000
      6371        51  DOPE      C312           29.1546679081        8.9968297010        6.5848456169  MEMB      51              0.0000000000
      6372        51  DOPE      H12X           29.3762256899       10.0863911874        6.5142034631  MEMB      51              0.0000000000
      6373        51  DOPE      H12Y           28.0923063072        8.8600275054        6.2808383879  MEMB      51              0.0000000000
      6374        51  DOPE      C313           30.0492291647        8.2560611183        5.5706502578  MEMB      51              0.0000000000
      6375        51  DOPE      H13X           31.1083479874        8.3372996938        5.8984588882  MEMB      51              0.0000000000
      6376        51  DOPE      H13Y           29.7789701996        7.1775000364        5.5405391871  MEMB      51              0.0000000000
      6377        51  DOPE      C314           29.9475160414        8.8545074532        4.1570587104  MEMB      51              0.0000000000
      6378        51  DOPE      H14X           29.9739736158        9.9652078973        4.2493806598  MEMB      51              0.0000000000
      6379        51  DOPE      H14Y           28.9724265785        8.5795749177        3.6975042896  MEMB      51              0.0000000000
      6380        51  DOPE      C315           31.0931144532        8.4556096192        3.2121273987  MEMB      51              0.0000000000
      6381        51  DOPE      H15X           32.0670358751        8.4669672829        3.7446404320  MEMB      51              0.0000000000
      6382        51  DOPE      H15Y           31.1479219642        9.2252303448        2.4076284401  MEMB      51              0.0000000000
      6383        51  DOPE      C316           30.8906650099        7.0902301202        2.5507075767  MEMB      51              0.0000000000
      6384        51  DOPE      H16X           29.8362227391        7.0062486468        2.2005009287  MEMB      51              0.0000000000
      6385        51  DOPE      H16Y           31.0682752411        6.2930295904        3.3065639793  MEMB      51              0.0000000000
      6386        51  DOPE      C317           31.7961530218        6.8765929839        1.3341431625  MEMB      51              0.0000000000
      6387        51  DOPE      H17X           32.8255948565        7.2300217367        1.5651572907  MEMB      51              0.0000000000
      6388        51  DOPE      H17Y           31.8534408176        5.7796295034        1.1394688371  MEMB      51              0.0000000000
      6389        51  DOPE      C318           31.2774259626        7.5871352735        0.0784591221  MEMB      51              0.0000000000
      6390        51  DOPE      H18X           31.2618815614        8.6859954398        0.2140810110  MEMB      51              0.0000000000
      6391        51  DOPE      H18Y           31.9262236706        7.3844283122       -0.7971298023  MEMB      51              0.0000000000
      6392        51  DOPE      H18Z           30.2486474918        7.2352667988       -0.1580708131  MEMB      51              0.0000000000
      6393        52  DOPC      N              22.6468274971       18.3936745091       20.0253534434  MEMB      52              0.0000000000
      6394        52  DOPC      C12            23.6831098539       19.1355888646       19.1758921736  MEMB      52              0.0000000000
      6395        52  DOPC      H12A           23.3970528437       19.0440841199       18.1373772819  MEMB      52              0.0000000000
      6396        52  DOPC      H12B           24.6467469728       18.6529909624       19.2855084627  MEMB      52              0.0000000000
      6397        52  DOPC      C13            22.7922580746       16.9108194616       19.8391635808  MEMB      52              0.0000000000
      6398        52  DOPC      H13A           22.0318807889       16.3943201613       20.4062836885  MEMB      52              0.0000000000
      6399        52  DOPC      H13B           22.7053371914       16.5894592176       18.8016557142  MEMB      52              0.0000000000
      6400        52  DOPC      H13C           23.7470319761       16.5671492395       20.2347180240  MEMB      52              0.0000000000
      6401        52  DOPC      C14            21.2622159134       18.8019305855       19.6073046169  MEMB      52              0.0000000000
      6402        52  DOPC      H14A           21.2155099897       19.8930643008       19.5104207697  MEMB      52              0.0000000000
      6403        52  DOPC      H14B           20.9813111450       18.3729448842       18.6517031582  MEMB      52              0.0000000000
      6404        52  DOPC      H14C           20.5189856526       18.4790183711       20.3282678087  MEMB      52              0.0000000000
      6405        52  DOPC      C15            22.8559022155       18.7164535743       21.4851654126  MEMB      52              0.0000000000
      6406        52  DOPC      H15A           22.0735851995       18.3294588186       22.1371530928  MEMB      52              0.0000000000
      6407        52  DOPC      H15B           22.8476091159       19.7982076294       21.6407781404  MEMB      52              0.0000000000
      6408        52  DOPC      H15C           23.7992897446       18.3388366177       21.8700725621  MEMB      52              0.0000000000
      6409        52  DOPC      C11            23.8795496997       20.6575324050       19.4108526850  MEMB      52              0.0000000000
      6410        52  DOPC      H11A           24.2796975271       20.8412716969       20.4341532830  MEMB      52              0.0000000000
      6411        52  DOPC      H11B           24.6641801874       21.0249666382       18.6958647872  MEMB      52              0.0000000000
      6412        52  DOPC      P              22.4003745695       22.5418704569       18.2624084210  MEMB      52              0.0000000000
      6413        52  DOPC      O13            23.4085228278       23.5762127882       18.5685681722  MEMB      52              0.0000000000
      6414        52  DOPC      O14            20.9805076542       22.9483057719       18.3160915924  MEMB      52              0.0000000000
      6415        52  DOPC      O12            22.6317377231       21.3337831870       19.2747095960  MEMB      52              0.0000000000
      6416        52  DOPC      O11            22.8122415287       21.8218525644       16.8989691971  MEMB      52              0.0000000000
      6417        52  DOPC      C1             21.9505727619       20.9048287392       16.2396913987  MEMB      52              0.0000000000
      6418        52  DOPC      HA             21.3078529823       21.4513117212       15.5173784976  MEMB      52              0.0000000000
      6419        52  DOPC      HB             21.2800881711       20.3945374249       16.9698818477  MEMB      52              0.0000000000
      6420        52  DOPC      C2             22.7037670757       19.7791691302       15.4604167161  MEMB      52              0.0000000000
      6421        52  DOPC      HS             23.4951034641       19.3716995443       16.1297514916  MEMB      52              0.0000000000
      6422        52  DOPC      O21            23.3081197271       20.2742930674       14.2463252253  MEMB      52              0.0000000000
      6423        52  DOPC      C21            24.0196705172       19.3905112025       13.5332966908  MEMB      52              0.0000000000
      6424        52  DOPC      O22            24.2477747443       18.2388223481       13.8639660384  MEMB      52              0.0000000000
      6425        52  DOPC      C22            24.7157595223       20.1207847280       12.3915505424  MEMB      52              0.0000000000
      6426        52  DOPC      H2R            25.7696471667       19.7943682137       12.5158358047  MEMB      52              0.0000000000
      6427        52  DOPC      H2S            24.6310777654       21.2137816160       12.5341042891  MEMB      52              0.0000000000
      6428        52  DOPC      C3             21.6696472223       18.6630156315       15.1686350641  MEMB      52              0.0000000000
      6429        52  DOPC      HX             21.3821342231       18.2234632390       16.1530410549  MEMB      52              0.0000000000
      6430        52  DOPC      HY             22.1334717026       17.8338357733       14.5965831856  MEMB      52              0.0000000000
      6431        52  DOPC      O31            20.4748774405       19.1823371830       14.5405205515  MEMB      52              0.0000000000
      6432        52  DOPC      C31            20.4518124004       19.1853500301       13.2025338672  MEMB      52              0.0000000000
      6433        52  DOPC      O32            21.3171176903       18.7232596426       12.4864900890  MEMB      52              0.0000000000
      6434        52  DOPC      C32            19.1085529835       19.7591203346       12.7076080440  MEMB      52              0.0000000000
      6435        52  DOPC      H2X            18.3811803712       19.5506074707       13.5169395434  MEMB      52              0.0000000000
      6436        52  DOPC      H2Y            19.2528210792       20.8539666985       12.6082091012  MEMB      52              0.0000000000
      6437        52  DOPC      C23            24.4442565869       19.7024536102       10.9452956393  MEMB      52              0.0000000000
      6438        52  DOPC      H3R            24.4825839916       18.5981098246       10.9150230377  MEMB      52              0.0000000000
      6439        52  DOPC      H3S            25.2769052257       20.0687625004       10.2976256490  MEMB      52              0.0000000000
      6440        52  DOPC      C24            23.1344988502       20.1771370500       10.3271373326  MEMB      52              0.0000000000
      6441        52  DOPC      H4R            23.2703123126       21.1648258120        9.8346753824  MEMB      52              0.0000000000
      6442        52  DOPC      H4S            22.3481514732       20.3103150131       11.0983833132  MEMB      52              0.0000000000
      6443        52  DOPC      C25            22.6973894548       19.1210556245        9.3090535415  MEMB      52              0.0000000000
      6444        52  DOPC      H5R            21.6474223303       19.2836070488        8.9935431341  MEMB      52              0.0000000000
      6445        52  DOPC      H5S            22.7219081471       18.1210432202        9.7945706049  MEMB      52              0.0000000000
      6446        52  DOPC      C26            23.6010000566       19.1148949767        8.0715676449  MEMB      52              0.0000000000
      6447        52  DOPC      H6R            24.6683820310       18.9581321442        8.3386668702  MEMB      52              0.0000000000
      6448        52  DOPC      H6S            23.5213285120       20.1230471767        7.6097270662  MEMB      52              0.0000000000
      6449        52  DOPC      C27            23.1669887368       18.0290006042        7.0845422367  MEMB      52              0.0000000000
      6450        52  DOPC      H7R            22.0577744304       18.0796657170        6.9989152539  MEMB      52              0.0000000000
      6451        52  DOPC      H7S            23.4139815737       17.0330367051        7.5064057713  MEMB      52              0.0000000000
      6452        52  DOPC      C28            23.7978683836       18.1571781222        5.6947717898  MEMB      52              0.0000000000
      6453        52  DOPC      H8R            23.4216785290       17.3330147214        5.0498273968  MEMB      52              0.0000000000
      6454        52  DOPC      H8S            24.9012750616       18.0410773613        5.7569337240  MEMB      52              0.0000000000
      6455        52  DOPC      C29            23.4331871069       19.5044714861        5.1416108804  MEMB      52              0.0000000000
      6456        52  DOPC      H9R            24.1888439433       20.2935695244        5.2653063147  MEMB      52              0.0000000000
      6457        52  DOPC      C210           22.2734681706       19.8139098452        4.5526056567  MEMB      52              0.0000000000
      6458        52  DOPC      H10R           22.1183085891       20.8250846269        4.1651062043  MEMB      52              0.0000000000
      6459        52  DOPC      C211           21.1180318930       18.9031410024        4.3155480538  MEMB      52              0.0000000000
      6460        52  DOPC      H11R           20.1833478798       19.4846002828        4.1660437664  MEMB      52              0.0000000000
      6461        52  DOPC      H11S           20.9086913893       18.2686069322        5.1933334105  MEMB      52              0.0000000000
      6462        52  DOPC      C212           21.4082853375       18.0074746347        3.1045253740  MEMB      52              0.0000000000
      6463        52  DOPC      H12R           20.5287037707       17.3839872529        3.0579997286  MEMB      52              0.0000000000
      6464        52  DOPC      H12S           22.2704858942       17.3272305874        3.2673431689  MEMB      52              0.0000000000
      6465        52  DOPC      C213           21.5384495177       18.6985091051        1.7411537255  MEMB      52              0.0000000000
      6466        52  DOPC      H13R           21.2374567648       17.9997318375        0.9357656487  MEMB      52              0.0000000000
      6467        52  DOPC      H13S           22.5880497283       18.9521377235        1.6391193186  MEMB      52              0.0000000000
      6468        52  DOPC      C214           20.7652046165       20.0004569075        1.6504728643  MEMB      52              0.0000000000
      6469        52  DOPC      H14R           21.2025166941       20.7732802784        2.2965759206  MEMB      52              0.0000000000
      6470        52  DOPC      H14S           19.8901946349       19.6852759861        2.1850055328  MEMB      52              0.0000000000
      6471        52  DOPC      C215           20.3611646482       20.5513095236        0.2760900385  MEMB      52              0.0000000000
      6472        52  DOPC      H15R           19.5691649189       19.8876512092       -0.1363719299  MEMB      52              0.0000000000
      6473        52  DOPC      H15S           21.2068172932       20.5296728754       -0.4393253310  MEMB      52              0.0000000000
      6474        52  DOPC      C216           19.8325028249       21.9989311880        0.3691157682  MEMB      52              0.0000000000
      6475        52  DOPC      H16R           20.6774981739       22.7137477039        0.2637616174  MEMB      52              0.0000000000
      6476        52  DOPC      H16S           19.3860347761       22.1589898967        1.3775721910  MEMB      52              0.0000000000
      6477        52  DOPC      C217           18.7957291302       22.3158809333       -0.7091916937  MEMB      52              0.0000000000
      6478        52  DOPC      H17R           17.9433540021       22.8841797992       -0.2796123009  MEMB      52              0.0000000000
      6479        52  DOPC      H17S           18.4144390718       21.3442983291       -1.0895874672  MEMB      52              0.0000000000
      6480        52  DOPC      C218           19.3621193797       23.0688637789       -1.9004694721  MEMB      52              0.0000000000
      6481        52  DOPC      H18R           20.3117691547       22.5985558780       -2.1363461200  MEMB      52              0.0000000000
      6482        52  DOPC      H18S           19.5287800126       24.1480567506       -1.7009660968  MEMB      52              0.0000000000
      6483        52  DOPC      H18T           18.7353945235       22.9341429039       -2.8012414588  MEMB      52              0.0000000000
      6484        52  DOPC      C33            18.5649784643       19.1469887123       11.3750138377  MEMB      52              0.0000000000
      6485        52  DOPC      H3X            17.9698531751       18.2393332513       11.6241401089  MEMB      52              0.0000000000
      6486        52  DOPC      H3Y            19.4316992226       18.8332045480       10.7523267678  MEMB      52              0.0000000000
      6487        52  DOPC      C34            17.5951758302       19.9162045681       10.4531152507  MEMB      52              0.0000000000
      6488        52  DOPC      H4X            16.5923977426       20.0389088338       10.9033270857  MEMB      52              0.0000000000
      6489        52  DOPC      H4Y            17.4575657291       19.2356136264        9.5816268503  MEMB      52              0.0000000000
      6490        52  DOPC      C35            18.0841895265       21.2348811235        9.8603608135  MEMB      52              0.0000000000
      6491        52  DOPC      H5X            18.2780778812       21.9670098628       10.6743192240  MEMB      52              0.0000000000
      6492        52  DOPC      H5Y            17.2703990434       21.6571715741        9.2250080130  MEMB      52              0.0000000000
      6493        52  DOPC      C36            19.3329434580       21.0084219584        9.0058735239  MEMB      52              0.0000000000
      6494        52  DOPC      H6X            20.1267758402       20.5916199348        9.6637305794  MEMB      52              0.0000000000
      6495        52  DOPC      H6Y            19.1203832110       20.2540389161        8.2147966684  MEMB      52              0.0000000000
      6496        52  DOPC      C37            19.8868228990       22.2782021691        8.3635400583  MEMB      52              0.0000000000
      6497        52  DOPC      H7X            19.1020009149       22.7601085561        7.7410170737  MEMB      52              0.0000000000
      6498        52  DOPC      H7Y            20.1452829220       22.9771436276        9.1934185206  MEMB      52              0.0000000000
      6499        52  DOPC      C38            21.1304674450       21.9844360973        7.5118801491  MEMB      52              0.0000000000
      6500        52  DOPC      H8X            20.8404189857       21.3714991125        6.6287989755  MEMB      52              0.0000000000
      6501        52  DOPC      H8Y            21.8225580997       21.3546216312        8.1040004009  MEMB      52              0.0000000000
      6502        52  DOPC      C39            21.8195716805       23.2720699128        7.1542124984  MEMB      52              0.0000000000
      6503        52  DOPC      H9X            22.5287125329       23.6444037320        7.9092192806  MEMB      52              0.0000000000
      6504        52  DOPC      C310           21.6327179614       23.9799484388        6.0315925417  MEMB      52              0.0000000000
      6505        52  DOPC      H10X           22.1624993120       24.9366456406        5.9114239526  MEMB      52              0.0000000000
      6506        52  DOPC      C311           20.6984285111       23.6176135830        4.9108002630  MEMB      52              0.0000000000
      6507        52  DOPC      H11X           19.7713383826       24.2194605614        5.0180046174  MEMB      52              0.0000000000
      6508        52  DOPC      H11Y           20.3738070165       22.5538396155        4.9541149143  MEMB      52              0.0000000000
      6509        52  DOPC      C312           21.3194660893       23.8706420657        3.5172676175  MEMB      52              0.0000000000
      6510        52  DOPC      H12X           21.3114224046       24.9580304805        3.2964222608  MEMB      52              0.0000000000
      6511        52  DOPC      H12Y           20.6403175193       23.3923495079        2.7781481719  MEMB      52              0.0000000000
      6512        52  DOPC      C313           22.7691803248       23.3612340228        3.3363107093  MEMB      52              0.0000000000
      6513        52  DOPC      H13X           23.4831826136       24.1919335976        3.5212182651  MEMB      52              0.0000000000
      6514        52  DOPC      H13Y           22.9734974024       22.5958918435        4.1116895771  MEMB      52              0.0000000000
      6515        52  DOPC      C314           23.0605649699       22.7234950511        1.9634453542  MEMB      52              0.0000000000
      6516        52  DOPC      H14X           22.1150220256       22.3016040937        1.5966223473  MEMB      52              0.0000000000
      6517        52  DOPC      H14Y           23.3330979208       23.5013277955        1.2271088790  MEMB      52              0.0000000000
      6518        52  DOPC      C315           24.1028110193       21.5804638635        2.0012262199  MEMB      52              0.0000000000
      6519        52  DOPC      H15X           23.9076104594       20.9232090361        2.8658158977  MEMB      52              0.0000000000
      6520        52  DOPC      H15Y           25.1138169055       22.0200282274        2.1263034229  MEMB      52              0.0000000000
      6521        52  DOPC      C316           24.1041756080       20.6972211097        0.7461193387  MEMB      52              0.0000000000
      6522        52  DOPC      H16X           23.0833789963       20.4099991710        0.4452639574  MEMB      52              0.0000000000
      6523        52  DOPC      H16Y           24.4403434745       21.3766698493       -0.0591802064  MEMB      52              0.0000000000
      6524        52  DOPC      C317           25.0374075582       19.4510642307        0.7462636177  MEMB      52              0.0000000000
      6525        52  DOPC      H17X           24.9331843360       19.0590060106       -0.2874038103  MEMB      52              0.0000000000
      6526        52  DOPC      H17Y           26.0726636500       19.8263998530        0.8905122631  MEMB      52              0.0000000000
      6527        52  DOPC      C318           24.8586179088       18.2164512043        1.6614408248  MEMB      52              0.0000000000
      6528        52  DOPC      H18X           24.5490937303       18.5046772201        2.6851745252  MEMB      52              0.0000000000
      6529        52  DOPC      H18Y           24.0954722712       17.5151199390        1.2526888372  MEMB      52              0.0000000000
      6530        52  DOPC      H18Z           25.8052322735       17.6381941571        1.7263392467  MEMB      52              0.0000000000
      6531        53  23SM      N              15.0330905207      -27.5457742944       27.9090108298  MEMB      53              0.0000000000
      6532        53  23SM      C15            15.8460638920      -26.3061723484       27.7543676101  MEMB      53              0.0000000000
      6533        53  23SM      H15A           16.4662308284      -26.1077638018       28.6155240892  MEMB      53              0.0000000000
      6534        53  23SM      H15B           15.2450813812      -25.4245198337       27.5722715003  MEMB      53              0.0000000000
      6535        53  23SM      H15C           16.4639151003      -26.4136401034       26.8623959319  MEMB      53              0.0000000000
      6536        53  23SM      C14            16.0224450553      -28.6246698780       28.2282765333  MEMB      53              0.0000000000
      6537        53  23SM      H14A           16.5780324669      -28.3765987251       29.1273310956  MEMB      53              0.0000000000
      6538        53  23SM      H14B           16.7321222225      -28.7093306496       27.4192045656  MEMB      53              0.0000000000
      6539        53  23SM      H14C           15.5361604149      -29.5875264911       28.3704320206  MEMB      53              0.0000000000
      6540        53  23SM      C13            14.0387798337      -27.4118065279       29.0223815515  MEMB      53              0.0000000000
      6541        53  23SM      H13A           14.5010866857      -27.6640441046       29.9656217897  MEMB      53              0.0000000000
      6542        53  23SM      H13B           13.1976215296      -28.0899447177       28.8622959019  MEMB      53              0.0000000000
      6543        53  23SM      H13C           13.6365893371      -26.4042704164       29.0587558105  MEMB      53              0.0000000000
      6544        53  23SM      C12            14.3090729521      -27.8698748710       26.6145783329  MEMB      53              0.0000000000
      6545        53  23SM      H12A           13.6420985922      -27.0453120287       26.3638877773  MEMB      53              0.0000000000
      6546        53  23SM      H12B           13.6422212902      -28.7177143334       26.8007954677  MEMB      53              0.0000000000
      6547        53  23SM      C11            15.1987022349      -28.1526892067       25.3674157191  MEMB      53              0.0000000000
      6548        53  23SM      H11A           14.5819694465      -28.6093125954       24.5660031927  MEMB      53              0.0000000000
      6549        53  23SM      H11B           15.9631507397      -28.9130463219       25.6264709722  MEMB      53              0.0000000000
      6550        53  23SM      P              15.0156557169      -25.7761611241       24.3296817698  MEMB      53              0.0000000000
      6551        53  23SM      O13            13.6548953713      -26.2391533882       23.9600352817  MEMB      53              0.0000000000
      6552        53  23SM      O14            15.1001876392      -24.6483400081       25.2773647379  MEMB      53              0.0000000000
      6553        53  23SM      O11            15.8265830554      -25.4377171495       23.0207651385  MEMB      53              0.0000000000
      6554        53  23SM      O12            15.8697259474      -26.9970652468       24.8711612182  MEMB      53              0.0000000000
      6555        53  23SM      C1S            16.0980870956      -26.4974021964       22.0854509047  MEMB      53              0.0000000000
      6556        53  23SM      H1S            15.7342147353      -27.4931294783       22.4248130690  MEMB      53              0.0000000000
      6557        53  23SM      H1T            17.1967887392      -26.5884804088       21.9417377803  MEMB      53              0.0000000000
      6558        53  23SM      NF             15.6467184229      -27.3136577323       19.7895955364  MEMB      53              0.0000000000
      6559        53  23SM      HNF            16.2451099638      -27.1333507994       19.0136917761  MEMB      53              0.0000000000
      6560        53  23SM      C2S            15.4537700870      -26.2013528969       20.7061417048  MEMB      53              0.0000000000
      6561        53  23SM      H2S            14.3576722804      -26.0529212819       20.8434733376  MEMB      53              0.0000000000
      6562        53  23SM      C3S            16.0724573425      -24.8846989436       20.1728227099  MEMB      53              0.0000000000
      6563        53  23SM      H3S            17.1812021989      -24.9536521267       20.2254414371  MEMB      53              0.0000000000
      6564        53  23SM      O3             15.7059823856      -23.7439525763       20.9332389535  MEMB      53              0.0000000000
      6565        53  23SM      HO3            15.7763195355      -24.0558566236       21.8492348670  MEMB      53              0.0000000000
      6566        53  23SM      C4S            15.6898374561      -24.6958656480       18.7367734011  MEMB      53              0.0000000000
      6567        53  23SM      H4S            16.5285193142      -24.8331803634       18.0434770322  MEMB      53              0.0000000000
      6568        53  23SM      C5S            14.4817869194      -24.3495156527       18.2643164949  MEMB      53              0.0000000000
      6569        53  23SM      H5S            13.6613257815      -24.1727715363       18.9764925139  MEMB      53              0.0000000000
      6570        53  23SM      C6S            14.1373974509      -24.1665869763       16.8181425308  MEMB      53              0.0000000000
      6571        53  23SM      H6S            13.9445563388      -23.0837515764       16.6404756955  MEMB      53              0.0000000000
      6572        53  23SM      H6T            13.1909721813      -24.7050313613       16.5884614421  MEMB      53              0.0000000000
      6573        53  23SM      C7S            15.1935886459      -24.6198473208       15.7905274434  MEMB      53              0.0000000000
      6574        53  23SM      H7S            15.3037285887      -25.7268438563       15.8169657585  MEMB      53              0.0000000000
      6575        53  23SM      H7T            16.1786802233      -24.1532540562       16.0093824021  MEMB      53              0.0000000000
      6576        53  23SM      C8S            14.7718342504      -24.1530630805       14.4005597753  MEMB      53              0.0000000000
      6577        53  23SM      H8S            14.5662211898      -23.0608840664       14.4438776896  MEMB      53              0.0000000000
      6578        53  23SM      H8T            13.8190757962      -24.6307596342       14.1332814815  MEMB      53              0.0000000000
      6579        53  23SM      C9S            15.7636924738      -24.4184726167       13.2702099814  MEMB      53              0.0000000000
      6580        53  23SM      H9S            16.6366577560      -23.7384289592       13.3762067946  MEMB      53              0.0000000000
      6581        53  23SM      H9T            15.2386427909      -24.1693433095       12.3228181612  MEMB      53              0.0000000000
      6582        53  23SM      C10S           16.2476431766      -25.8564412511       13.1208857403  MEMB      53              0.0000000000
      6583        53  23SM      H10S           15.3862524776      -26.5465144045       13.0008142523  MEMB      53              0.0000000000
      6584        53  23SM      H10T           16.8089882745      -26.1794809613       14.0237380082  MEMB      53              0.0000000000
      6585        53  23SM      C11S           17.1418470103      -25.9806762981       11.8894865857  MEMB      53              0.0000000000
      6586        53  23SM      H11S           17.5098184773      -27.0289047301       11.8375199928  MEMB      53              0.0000000000
      6587        53  23SM      H11T           18.0275749046      -25.3138232926       11.9884705851  MEMB      53              0.0000000000
      6588        53  23SM      C12S           16.4478658285      -25.6019732487       10.5753348639  MEMB      53              0.0000000000
      6589        53  23SM      H12S           16.6456484669      -24.5335637270       10.3326441350  MEMB      53              0.0000000000
      6590        53  23SM      H12T           15.3519325609      -25.7384611290       10.6411146734  MEMB      53              0.0000000000
      6591        53  23SM      C13S           16.9824054834      -26.3967030047        9.4075999264  MEMB      53              0.0000000000
      6592        53  23SM      H13S           16.5568890745      -25.9391636896        8.4881562160  MEMB      53              0.0000000000
      6593        53  23SM      H13T           16.6743268218      -27.4645770216        9.4402178045  MEMB      53              0.0000000000
      6594        53  23SM      C14S           18.4936090979      -26.3165888555        9.3717748935  MEMB      53              0.0000000000
      6595        53  23SM      H14S           18.9767372700      -26.6659437484       10.3138663293  MEMB      53              0.0000000000
      6596        53  23SM      H14T           18.8065928353      -25.2606907166        9.2160269243  MEMB      53              0.0000000000
      6597        53  23SM      C15S           19.0311390572      -27.1710303999        8.2506550405  MEMB      53              0.0000000000
      6598        53  23SM      H15S           18.8205606500      -28.2466501287        8.4171949402  MEMB      53              0.0000000000
      6599        53  23SM      H15T           20.0972788533      -26.9846672682        8.3950724799  MEMB      53              0.0000000000
      6600        53  23SM      C16S           18.5688298033      -26.6920454984        6.8806289104  MEMB      53              0.0000000000
      6601        53  23SM      H16S           19.0581208622      -25.7199884306        6.6951985472  MEMB      53              0.0000000000
      6602        53  23SM      H16T           17.4749032445      -26.5391173358        6.8604989705  MEMB      53              0.0000000000
      6603        53  23SM      C17S           18.8761684315      -27.5639833485        5.6834612355  MEMB      53              0.0000000000
      6604        53  23SM      H17S           18.9381609646      -28.6437675696        5.9289890822  MEMB      53              0.0000000000
      6605        53  23SM      H17T           19.8227447041      -27.2175781432        5.2640683858  MEMB      53              0.0000000000
      6606        53  23SM      C18S           17.9703351573      -27.2868930947        4.5171238222  MEMB      53              0.0000000000
      6607        53  23SM      H18S           18.3001483113      -26.3512195459        4.0330610440  MEMB      53              0.0000000000
      6608        53  23SM      H18T           16.9116478720      -27.1699029611        4.8082950556  MEMB      53              0.0000000000
      6609        53  23SM      H18U           18.0910354007      -28.1133400439        3.7936101895  MEMB      53              0.0000000000
      6610        53  23SM      C1F            15.1426148938      -28.5243420233       19.9493009744  MEMB      53              0.0000000000
      6611        53  23SM      OF             14.4088906913      -28.8205507999       20.8914362242  MEMB      53              0.0000000000
      6612        53  23SM      C2F            15.6449238454      -29.5209366605       18.9555225440  MEMB      53              0.0000000000
      6613        53  23SM      H2F            16.2693636467      -30.2552704366       19.4993759717  MEMB      53              0.0000000000
      6614        53  23SM      H2G            16.3086466216      -29.0008047477       18.2272074263  MEMB      53              0.0000000000
      6615        53  23SM      C3F            14.5141971486      -30.2027580253       18.1683966940  MEMB      53              0.0000000000
      6616        53  23SM      H3F            13.8274209128      -30.7558785066       18.8483248982  MEMB      53              0.0000000000
      6617        53  23SM      H3G            14.9663611168      -30.9390215032       17.4621020662  MEMB      53              0.0000000000
      6618        53  23SM      C4F            13.6847430284      -29.2162916329       17.3439003582  MEMB      53              0.0000000000
      6619        53  23SM      H4F            14.3654045907      -28.5346602703       16.7877593624  MEMB      53              0.0000000000
      6620        53  23SM      H4G            13.0651702634      -28.5837620511       18.0200213350  MEMB      53              0.0000000000
      6621        53  23SM      C5F            12.7626088984      -29.9471428983       16.3642321089  MEMB      53              0.0000000000
      6622        53  23SM      H5F            11.7554319106      -29.4847907018       16.4184000938  MEMB      53              0.0000000000
      6623        53  23SM      H5G            12.6400680844      -31.0072581741       16.6793598209  MEMB      53              0.0000000000
      6624        53  23SM      C6F            13.2692360782      -29.8945563027       14.9183195119  MEMB      53              0.0000000000
      6625        53  23SM      H6F            12.6313758363      -30.5492349936       14.2846564849  MEMB      53              0.0000000000
      6626        53  23SM      H6G            14.3031529292      -30.3030488901       14.8767658377  MEMB      53              0.0000000000
      6627        53  23SM      C7F            13.2486977651      -28.4852991240       14.3023361015  MEMB      53              0.0000000000
      6628        53  23SM      H7F            13.6831415912      -28.5524878611       13.2796021619  MEMB      53              0.0000000000
      6629        53  23SM      H7G            13.9002697447      -27.8007792930       14.8866070075  MEMB      53              0.0000000000
      6630        53  23SM      C8F            11.8413854020      -27.8679699982       14.2132544247  MEMB      53              0.0000000000
      6631        53  23SM      H8F            11.3422717938      -27.9142662943       15.2057666700  MEMB      53              0.0000000000
      6632        53  23SM      H8G            11.2252887624      -28.4536103572       13.5013857286  MEMB      53              0.0000000000
      6633        53  23SM      C9F            11.8518459572      -26.3876865802       13.8167910132  MEMB      53              0.0000000000
      6634        53  23SM      H9F            12.3984190918      -25.8565207525       14.6217300208  MEMB      53              0.0000000000
      6635        53  23SM      H9G            10.8198744749      -25.9868941980       13.8074443586  MEMB      53              0.0000000000
      6636        53  23SM      C10F           12.4500992404      -26.1036611427       12.4373142171  MEMB      53              0.0000000000
      6637        53  23SM      H10F           13.3885680199      -26.6764014416       12.3007665058  MEMB      53              0.0000000000
      6638        53  23SM      H10G           12.7049828905      -25.0230432539       12.3458550759  MEMB      53              0.0000000000
      6639        53  23SM      C11F           11.4594779385      -26.4385027566       11.3241152005  MEMB      53              0.0000000000
      6640        53  23SM      H11F           10.5706950756      -25.7761000244       11.4239616316  MEMB      53              0.0000000000
      6641        53  23SM      H11G           11.1162716758      -27.4907025018       11.4400641878  MEMB      53              0.0000000000
      6642        53  23SM      C12F           12.0663458009      -26.2571916473        9.9363034013  MEMB      53              0.0000000000
      6643        53  23SM      H12F           12.5202277296      -25.2450717203        9.8437219617  MEMB      53              0.0000000000
      6644        53  23SM      H12G           11.2550263950      -26.3455716454        9.1793240836  MEMB      53              0.0000000000
      6645        53  23SM      C13F           13.0994988250      -27.3326224621        9.6154724893  MEMB      53              0.0000000000
      6646        53  23SM      H13F           12.6472012585      -28.3310303346        9.8131014772  MEMB      53              0.0000000000
      6647        53  23SM      H13G           13.9934836929      -27.2531503528       10.2687048727  MEMB      53              0.0000000000
      6648        53  23SM      C14F           13.5233504746      -27.2675990037        8.1545632591  MEMB      53              0.0000000000
      6649        53  23SM      H14F           14.1691464666      -26.3764562246        7.9865596050  MEMB      53              0.0000000000
      6650        53  23SM      H14G           12.6167079239      -27.1666521404        7.5138132089  MEMB      53              0.0000000000
      6651        53  23SM      C15F           14.2555949512      -28.5397574253        7.7526566882  MEMB      53              0.0000000000
      6652        53  23SM      H15F           13.5247527515      -29.3809582297        7.7613794766  MEMB      53              0.0000000000
      6653        53  23SM      H15G           15.0538662510      -28.7798354031        8.4909827386  MEMB      53              0.0000000000
      6654        53  23SM      C16F           14.8836607380      -28.4283736162        6.3692670887  MEMB      53              0.0000000000
      6655        53  23SM      H16F           15.8476568019      -27.8847222317        6.4647227388  MEMB      53              0.0000000000
      6656        53  23SM      H16G           14.2195078625      -27.8376377534        5.7000147183  MEMB      53              0.0000000000
      6657        53  23SM      C17F           15.1030377323      -29.8207684565        5.7870903159  MEMB      53              0.0000000000
      6658        53  23SM      H17F           14.1102147482      -30.3052116769        5.6437990028  MEMB      53              0.0000000000
      6659        53  23SM      H17G           15.6720228084      -30.4248073605        6.5319343712  MEMB      53              0.0000000000
      6660        53  23SM      C18F           15.8610868097      -29.8604609974        4.4569266681  MEMB      53              0.0000000000
      6661        53  23SM      H18F           15.8496325295      -30.9267070116        4.1726383857  MEMB      53              0.0000000000
      6662        53  23SM      H18G           16.9222053294      -29.6052613253        4.6441696123  MEMB      53              0.0000000000
      6663        53  23SM      C19F           15.2649243224      -28.9636465873        3.3492523064  MEMB      53              0.0000000000
      6664        53  23SM      H19F           15.2384908099      -27.9190004554        3.7349336729  MEMB      53              0.0000000000
      6665        53  23SM      H19G           14.2145819762      -29.2450462310        3.1464755258  MEMB      53              0.0000000000
      6666        53  23SM      C20F           16.0431604094      -28.8971000747        2.0202857242  MEMB      53              0.0000000000
      6667        53  23SM      H20F           17.1192326661      -28.7335308443        2.2091925060  MEMB      53              0.0000000000
      6668        53  23SM      H20G           15.6723831538      -28.0089064709        1.4545058896  MEMB      53              0.0000000000
      6669        53  23SM      C21F           15.9407744148      -30.1037862939        1.0823126898  MEMB      53              0.0000000000
      6670        53  23SM      H21F           16.5193158649      -29.8120307948        0.1777761928  MEMB      53              0.0000000000
      6671        53  23SM      H21G           14.8838779588      -30.2705774390        0.7824707063  MEMB      53              0.0000000000
      6672        53  23SM      C22F           16.5426013276      -31.3948428155        1.6464971227  MEMB      53              0.0000000000
      6673        53  23SM      H22F           15.8822466085      -31.7538006832        2.4601446723  MEMB      53              0.0000000000
      6674        53  23SM      H22G           17.5491847254      -31.1684660044        2.0706824803  MEMB      53              0.0000000000
      6675        53  23SM      C23F           16.6368933807      -32.5579516088        0.6630840337  MEMB      53              0.0000000000
      6676        53  23SM      H23F           17.3750997766      -32.3436926076       -0.1378837890  MEMB      53              0.0000000000
      6677        53  23SM      H23G           15.6475690479      -32.7515774776        0.1996137227  MEMB      53              0.0000000000
      6678        53  23SM      H23H           16.9615579644      -33.4755585661        1.2002310399  MEMB      53              0.0000000000
      6679        54  DOPC      N              21.6776702333      -20.1235556252       19.4065516123  MEMB      54              0.0000000000
      6680        54  DOPC      C12            22.1989516802      -20.9467448018       18.2252968637  MEMB      54              0.0000000000
      6681        54  DOPC      H12A           22.9544094544      -20.3931353627       17.6922560108  MEMB      54              0.0000000000
      6682        54  DOPC      H12B           21.3684386776      -21.0525829746       17.5473083740  MEMB      54              0.0000000000
      6683        54  DOPC      C13            22.4568282829      -20.4477847895       20.6451454646  MEMB      54              0.0000000000
      6684        54  DOPC      H13A           23.5016961738      -20.1918153012       20.5361756652  MEMB      54              0.0000000000
      6685        54  DOPC      H13B           22.0272485061      -19.9480271233       21.5090680651  MEMB      54              0.0000000000
      6686        54  DOPC      H13C           22.3831038782      -21.5208745748       20.8165378468  MEMB      54              0.0000000000
      6687        54  DOPC      C14            20.2506572176      -20.4940235230       19.6829925831  MEMB      54              0.0000000000
      6688        54  DOPC      H14A           20.1622617130      -21.5815768957       19.7346910400  MEMB      54              0.0000000000
      6689        54  DOPC      H14B           19.9064753663      -20.0548288711       20.6184961400  MEMB      54              0.0000000000
      6690        54  DOPC      H14C           19.5816694832      -20.1625178903       18.8982558148  MEMB      54              0.0000000000
      6691        54  DOPC      C15            21.7329228206      -18.6450742255       19.1656649132  MEMB      54              0.0000000000
      6692        54  DOPC      H15A           21.0321749703      -18.3366356990       18.4009948238  MEMB      54              0.0000000000
      6693        54  DOPC      H15B           22.7264385675      -18.3182866820       18.8799305699  MEMB      54              0.0000000000
      6694        54  DOPC      H15C           21.4429575260      -18.1245864034       20.0763078917  MEMB      54              0.0000000000
      6695        54  DOPC      C11            22.7202392297      -22.4051948791       18.4222479508  MEMB      54              0.0000000000
      6696        54  DOPC      H11A           23.1008487577      -22.7588892386       17.4308740092  MEMB      54              0.0000000000
      6697        54  DOPC      H11B           23.5905325918      -22.4153521610       19.1137043958  MEMB      54              0.0000000000
      6698        54  DOPC      P              21.9456211073      -24.8611494942       18.9726971782  MEMB      54              0.0000000000
      6699        54  DOPC      O13            21.0292911018      -25.3960689530       20.0055241990  MEMB      54              0.0000000000
      6700        54  DOPC      O14            23.3905211673      -25.0389150872       19.1999765595  MEMB      54              0.0000000000
      6701        54  DOPC      O12            21.6857681251      -23.2732531152       18.8856466146  MEMB      54              0.0000000000
      6702        54  DOPC      O11            21.5617216792      -25.3976957822       17.5116295397  MEMB      54              0.0000000000
      6703        54  DOPC      C1             20.6306984364      -24.6087666463       16.7567990458  MEMB      54              0.0000000000
      6704        54  DOPC      HA             20.9748385720      -23.5551603322       16.6570094845  MEMB      54              0.0000000000
      6705        54  DOPC      HB             19.6521795363      -24.6201322437       17.2920773891  MEMB      54              0.0000000000
      6706        54  DOPC      C2             20.3363272094      -25.0878358859       15.2967950589  MEMB      54              0.0000000000
      6707        54  DOPC      HS             20.2269931569      -26.1956062179       15.3082540734  MEMB      54              0.0000000000
      6708        54  DOPC      O21            21.3885303185      -24.7054361987       14.3930466975  MEMB      54              0.0000000000
      6709        54  DOPC      C21            21.2476714032      -25.0198621630       13.1148699064  MEMB      54              0.0000000000
      6710        54  DOPC      O22            20.3250979739      -25.6015279118       12.5785523526  MEMB      54              0.0000000000
      6711        54  DOPC      C22            22.4790396878      -24.4937510990       12.4231092944  MEMB      54              0.0000000000
      6712        54  DOPC      H2R            23.3201078977      -25.0341305000       12.9016421499  MEMB      54              0.0000000000
      6713        54  DOPC      H2S            22.6159817257      -23.4192818300       12.6539773540  MEMB      54              0.0000000000
      6714        54  DOPC      C3             19.0105855837      -24.4082849716       14.8660534284  MEMB      54              0.0000000000
      6715        54  DOPC      HX             18.2737046125      -24.5517526247       15.6883292774  MEMB      54              0.0000000000
      6716        54  DOPC      HY             18.6015254163      -24.9269057518       13.9851076414  MEMB      54              0.0000000000
      6717        54  DOPC      O31            19.2581951567      -23.0256713458       14.5204377265  MEMB      54              0.0000000000
      6718        54  DOPC      C31            18.7172840321      -22.0987004062       15.2781613662  MEMB      54              0.0000000000
      6719        54  DOPC      O32            17.9451732538      -22.2840031383       16.1986119091  MEMB      54              0.0000000000
      6720        54  DOPC      C32            19.2616415349      -20.7371957992       14.8332308798  MEMB      54              0.0000000000
      6721        54  DOPC      H2X            19.5178153888      -20.7745923578       13.7559854047  MEMB      54              0.0000000000
      6722        54  DOPC      H2Y            18.4488788610      -20.0062938638       14.9900641728  MEMB      54              0.0000000000
      6723        54  DOPC      C23            22.4101699182      -24.6824108817       10.8986963780  MEMB      54              0.0000000000
      6724        54  DOPC      H3R            22.2923961040      -25.7463811810       10.5864122079  MEMB      54              0.0000000000
      6725        54  DOPC      H3S            23.3666218598      -24.2758354632       10.5134677991  MEMB      54              0.0000000000
      6726        54  DOPC      C24            21.3754356624      -23.7896583993       10.2489925527  MEMB      54              0.0000000000
      6727        54  DOPC      H4R            21.2737170497      -22.8870179839       10.8959155262  MEMB      54              0.0000000000
      6728        54  DOPC      H4S            20.3991374951      -24.3136875478       10.2241053001  MEMB      54              0.0000000000
      6729        54  DOPC      C25            21.7776759224      -23.2912898630        8.8593947084  MEMB      54              0.0000000000
      6730        54  DOPC      H5R            21.6271692068      -24.0843882263        8.0956322779  MEMB      54              0.0000000000
      6731        54  DOPC      H5S            22.8590147647      -23.0232257913        8.8329135052  MEMB      54              0.0000000000
      6732        54  DOPC      C26            20.9629433963      -22.0362038765        8.5418793359  MEMB      54              0.0000000000
      6733        54  DOPC      H6R            21.3258014440      -21.5884196334        7.5943662609  MEMB      54              0.0000000000
      6734        54  DOPC      H6S            21.1593620446      -21.2869556767        9.3447539191  MEMB      54              0.0000000000
      6735        54  DOPC      C27            19.4478672220      -22.3157577957        8.4576266364  MEMB      54              0.0000000000
      6736        54  DOPC      H7R            18.8900404623      -21.3594081060        8.4957901554  MEMB      54              0.0000000000
      6737        54  DOPC      H7S            19.1162092711      -22.8882872612        9.3482665330  MEMB      54              0.0000000000
      6738        54  DOPC      C28            19.0951615524      -23.0590727946        7.1498951315  MEMB      54              0.0000000000
      6739        54  DOPC      H8R            19.7708738330      -23.9371634585        7.1180552356  MEMB      54              0.0000000000
      6740        54  DOPC      H8S            19.3835872133      -22.4136960282        6.2937411807  MEMB      54              0.0000000000
      6741        54  DOPC      C29            17.6646624241      -23.5180225340        6.9996899469  MEMB      54              0.0000000000
      6742        54  DOPC      H9R            17.1091374998      -23.6049747852        7.9471134139  MEMB      54              0.0000000000
      6743        54  DOPC      C210           17.0309441719      -23.7939256172        5.8375302199  MEMB      54              0.0000000000
      6744        54  DOPC      H10R           15.9766607853      -24.1134106139        5.8845400691  MEMB      54              0.0000000000
      6745        54  DOPC      C211           17.6209474447      -23.6989377092        4.4417645680  MEMB      54              0.0000000000
      6746        54  DOPC      H11R           18.6532317032      -24.0968048236        4.3679404509  MEMB      54              0.0000000000
      6747        54  DOPC      H11S           17.6918005249      -22.6047432076        4.2521268813  MEMB      54              0.0000000000
      6748        54  DOPC      C212           16.7243947064      -24.2464126493        3.2987328585  MEMB      54              0.0000000000
      6749        54  DOPC      H12R           16.3749673286      -23.3426544957        2.7641741868  MEMB      54              0.0000000000
      6750        54  DOPC      H12S           15.8329300370      -24.7553473777        3.7301773367  MEMB      54              0.0000000000
      6751        54  DOPC      C213           17.1974835409      -25.1420894162        2.1309538353  MEMB      54              0.0000000000
      6752        54  DOPC      H13R           16.6234799577      -24.9148853728        1.2020560036  MEMB      54              0.0000000000
      6753        54  DOPC      H13S           16.8896059747      -26.1807906765        2.3839189916  MEMB      54              0.0000000000
      6754        54  DOPC      C214           18.6687266933      -25.1960007298        1.7606298295  MEMB      54              0.0000000000
      6755        54  DOPC      H14R           19.3309274502      -25.0431520980        2.6405751094  MEMB      54              0.0000000000
      6756        54  DOPC      H14S           18.9316617065      -24.4379558621        0.9936443017  MEMB      54              0.0000000000
      6757        54  DOPC      C215           18.8930763157      -26.5993065949        1.2094864106  MEMB      54              0.0000000000
      6758        54  DOPC      H15R           18.2308713314      -26.7806232150        0.3330690245  MEMB      54              0.0000000000
      6759        54  DOPC      H15S           18.6287322630      -27.3378590811        1.9869641638  MEMB      54              0.0000000000
      6760        54  DOPC      C216           20.3301131334      -26.8476378033        0.8455811540  MEMB      54              0.0000000000
      6761        54  DOPC      H16R           20.9774881849      -26.3463379121        1.6003492542  MEMB      54              0.0000000000
      6762        54  DOPC      H16S           20.4273843067      -26.3241179641       -0.1199076245  MEMB      54              0.0000000000
      6763        54  DOPC      C217           20.6532857887      -28.3395018174        0.8055014671  MEMB      54              0.0000000000
      6764        54  DOPC      H17R           19.9064208663      -28.8552233429        0.1598457597  MEMB      54              0.0000000000
      6765        54  DOPC      H17S           20.5194539089      -28.7329367808        1.8409166009  MEMB      54              0.0000000000
      6766        54  DOPC      C218           22.0512157869      -28.7392234333        0.3441316952  MEMB      54              0.0000000000
      6767        54  DOPC      H18R           22.4116318678      -29.5843694009        0.9691159552  MEMB      54              0.0000000000
      6768        54  DOPC      H18S           22.8205765737      -27.9593855489        0.4339378702  MEMB      54              0.0000000000
      6769        54  DOPC      H18T           22.0355651002      -29.0641132733       -0.7192513134  MEMB      54              0.0000000000
      6770        54  DOPC      C33            20.3957789517      -20.1564844336       15.6872129093  MEMB      54              0.0000000000
      6771        54  DOPC      H3X            21.3774090754      -20.5797761908       15.3815441753  MEMB      54              0.0000000000
      6772        54  DOPC      H3Y            20.1660454779      -20.4201346798       16.7398617368  MEMB      54              0.0000000000
      6773        54  DOPC      C34            20.4035590819      -18.6201867719       15.6246622731  MEMB      54              0.0000000000
      6774        54  DOPC      H4X            21.2382601597      -18.2277619931       16.2417515089  MEMB      54              0.0000000000
      6775        54  DOPC      H4Y            19.4516035873      -18.2402978121       16.0669876656  MEMB      54              0.0000000000
      6776        54  DOPC      C35            20.5173380849      -18.0558730398       14.2052641721  MEMB      54              0.0000000000
      6777        54  DOPC      H5X            20.7017041741      -16.9577695600       14.2642120535  MEMB      54              0.0000000000
      6778        54  DOPC      H5Y            19.5429406267      -18.1983279623       13.6813194939  MEMB      54              0.0000000000
      6779        54  DOPC      C36            21.6210253295      -18.7232819894       13.3720802706  MEMB      54              0.0000000000
      6780        54  DOPC      H6X            22.5496628766      -18.7909618263       13.9844447687  MEMB      54              0.0000000000
      6781        54  DOPC      H6Y            21.3160325838      -19.7585716595       13.1045394925  MEMB      54              0.0000000000
      6782        54  DOPC      C37            21.9528438408      -17.9716182199       12.0761761625  MEMB      54              0.0000000000
      6783        54  DOPC      H7X            22.6012176307      -17.1288878125       12.3704705415  MEMB      54              0.0000000000
      6784        54  DOPC      H7Y            22.5705241257      -18.6119501776       11.4087865972  MEMB      54              0.0000000000
      6785        54  DOPC      C38            20.7459814433      -17.3893821869       11.3171856336  MEMB      54              0.0000000000
      6786        54  DOPC      H8X            21.1390842266      -16.6242536015       10.6132817259  MEMB      54              0.0000000000
      6787        54  DOPC      H8Y            20.0783887704      -16.8252613961       12.0008527075  MEMB      54              0.0000000000
      6788        54  DOPC      C39            19.9550792385      -18.4529277263       10.6083155298  MEMB      54              0.0000000000
      6789        54  DOPC      H9X            19.5094802740      -19.2294924946       11.2501303211  MEMB      54              0.0000000000
      6790        54  DOPC      C310           19.7968794205      -18.5453971958        9.2818650483  MEMB      54              0.0000000000
      6791        54  DOPC      H10X           19.1666350302      -19.3582676224        8.8966918335  MEMB      54              0.0000000000
      6792        54  DOPC      C311           20.3672750180      -17.6258988979        8.2290800384  MEMB      54              0.0000000000
      6793        54  DOPC      H11X           21.1740390721      -16.9645802939        8.6116925580  MEMB      54              0.0000000000
      6794        54  DOPC      H11Y           19.5657970716      -16.9694460363        7.8212999515  MEMB      54              0.0000000000
      6795        54  DOPC      C312           20.9475853601      -18.4398115773        7.0651551111  MEMB      54              0.0000000000
      6796        54  DOPC      H12X           21.7972599242      -19.0722437112        7.4106973050  MEMB      54              0.0000000000
      6797        54  DOPC      H12Y           21.3420702850      -17.7374889048        6.2964917777  MEMB      54              0.0000000000
      6798        54  DOPC      C313           19.8680958350      -19.3121335961        6.4262173208  MEMB      54              0.0000000000
      6799        54  DOPC      H13X           19.7352657780      -20.2244574707        7.0294061301  MEMB      54              0.0000000000
      6800        54  DOPC      H13Y           18.9032589352      -18.7630984409        6.4352976389  MEMB      54              0.0000000000
      6801        54  DOPC      C314           20.1643819378      -19.7470719106        5.0072789518  MEMB      54              0.0000000000
      6802        54  DOPC      H14X           19.4100521523      -20.5106642143        4.7089658002  MEMB      54              0.0000000000
      6803        54  DOPC      H14Y           20.0641107814      -18.8685759695        4.3298696374  MEMB      54              0.0000000000
      6804        54  DOPC      C315           21.5385491936      -20.3694509146        4.8331420445  MEMB      54              0.0000000000
      6805        54  DOPC      H15X           21.6795414076      -21.2323297287        5.5187604742  MEMB      54              0.0000000000
      6806        54  DOPC      H15Y           22.3335141413      -19.6199687099        5.0451611057  MEMB      54              0.0000000000
      6807        54  DOPC      C316           21.6326839102      -20.8390162819        3.3966749300  MEMB      54              0.0000000000
      6808        54  DOPC      H16X           20.9719495056      -21.7218179063        3.2520891065  MEMB      54              0.0000000000
      6809        54  DOPC      H16Y           21.2262467601      -20.0271429532        2.7463773702  MEMB      54              0.0000000000
      6810        54  DOPC      C317           23.0591917318      -21.1268577939        2.9774585956  MEMB      54              0.0000000000
      6811        54  DOPC      H17X           23.7767921731      -20.5603015364        3.6138301706  MEMB      54              0.0000000000
      6812        54  DOPC      H17Y           23.2722366084      -22.2102737727        3.1137903772  MEMB      54              0.0000000000
      6813        54  DOPC      C318           23.2697460218      -20.7054380678        1.5373041884  MEMB      54              0.0000000000
      6814        54  DOPC      H18X           22.3378021700      -20.8442827935        0.9446021254  MEMB      54              0.0000000000
      6815        54  DOPC      H18Y           23.5574937117      -19.6367285193        1.4540173120  MEMB      54              0.0000000000
      6816        54  DOPC      H18Z           24.0693489371      -21.3231423868        1.0814475193  MEMB      54              0.0000000000
      6817        55  CHL1      C3             -5.6472541372      -31.5005508025       17.8603429061  MEMB      55              0.0000000000
      6818        55  CHL1      H3             -6.2083048483      -32.4419997855       18.0754858436  MEMB      55              0.0000000000
      6819        55  CHL1      O3             -5.6443008250      -30.7143172142       19.0378970119  MEMB      55              0.0000000000
      6820        55  CHL1      H3'            -4.9339867465      -31.1539037297       19.5320100747  MEMB      55              0.0000000000
      6821        55  CHL1      C4             -4.1967248512      -31.8196116151       17.4967096613  MEMB      55              0.0000000000
      6822        55  CHL1      H4A            -3.6479610318      -30.8737861682       17.2977403104  MEMB      55              0.0000000000
      6823        55  CHL1      H4B            -3.7091279099      -32.3045990501       18.3725340930  MEMB      55              0.0000000000
      6824        55  CHL1      C5             -4.1853919152      -32.6980462307       16.2665441362  MEMB      55              0.0000000000
      6825        55  CHL1      C6             -3.6709130645      -33.9346562089       16.3201153116  MEMB      55              0.0000000000
      6826        55  CHL1      H6             -3.2292797867      -34.3037701735       17.2536932230  MEMB      55              0.0000000000
      6827        55  CHL1      C7             -3.5907389915      -34.8380967608       15.1321475381  MEMB      55              0.0000000000
      6828        55  CHL1      H7A            -2.5992925831      -35.3389555709       15.0937194617  MEMB      55              0.0000000000
      6829        55  CHL1      H7B            -4.3715502194      -35.6200648456       15.2167832937  MEMB      55              0.0000000000
      6830        55  CHL1      C8             -3.8298462319      -34.0575061316       13.8138798632  MEMB      55              0.0000000000
      6831        55  CHL1      H8             -2.9423249011      -33.4065519074       13.6445102535  MEMB      55              0.0000000000
      6832        55  CHL1      C14            -3.9415167590      -35.0079385126       12.6545794050  MEMB      55              0.0000000000
      6833        55  CHL1      H14            -4.8206869902      -35.6729700894       12.8494565344  MEMB      55              0.0000000000
      6834        55  CHL1      C15            -2.7353617084      -35.9400398884       12.4665696514  MEMB      55              0.0000000000
      6835        55  CHL1      H15A           -1.8070613452      -35.4159651988       12.7809896839  MEMB      55              0.0000000000
      6836        55  CHL1      H15B           -2.8481036454      -36.8600212215       13.0746307643  MEMB      55              0.0000000000
      6837        55  CHL1      C16            -2.7249886382      -36.2302527577       10.9676864585  MEMB      55              0.0000000000
      6838        55  CHL1      H16A           -1.7642260070      -35.8696988720       10.5456081315  MEMB      55              0.0000000000
      6839        55  CHL1      H16B           -2.7892467048      -37.3053177637       10.7513823899  MEMB      55              0.0000000000
      6840        55  CHL1      C17            -3.9462127308      -35.4828181040       10.3452300129  MEMB      55              0.0000000000
      6841        55  CHL1      H17            -4.8252874681      -36.1630444336       10.4245381348  MEMB      55              0.0000000000
      6842        55  CHL1      C13            -4.2156722064      -34.3215466436       11.3201453789  MEMB      55              0.0000000000
      6843        55  CHL1      C18            -3.1840908046      -33.2146015440       11.0377837720  MEMB      55              0.0000000000
      6844        55  CHL1      H18A           -3.3573857715      -32.7987351898       10.0303403375  MEMB      55              0.0000000000
      6845        55  CHL1      H18B           -3.2467527558      -32.3680432910       11.7429709478  MEMB      55              0.0000000000
      6846        55  CHL1      H18C           -2.1528303784      -33.6013798808       11.1033189185  MEMB      55              0.0000000000
      6847        55  CHL1      C12            -5.6358606424      -33.7374918953       11.4177054141  MEMB      55              0.0000000000
      6848        55  CHL1      H12A           -5.9229134682      -33.2056240264       10.4881668768  MEMB      55              0.0000000000
      6849        55  CHL1      H12B           -6.3579229072      -34.5658829904       11.5750239982  MEMB      55              0.0000000000
      6850        55  CHL1      C11            -5.7244056753      -32.7306755412       12.5904363725  MEMB      55              0.0000000000
      6851        55  CHL1      H11A           -5.2175626413      -31.8074846792       12.2486288169  MEMB      55              0.0000000000
      6852        55  CHL1      H11B           -6.7931445230      -32.4777630463       12.7577591050  MEMB      55              0.0000000000
      6853        55  CHL1      C9             -5.0979206102      -33.2197732791       13.9385188007  MEMB      55              0.0000000000
      6854        55  CHL1      H9             -5.8569321664      -33.9411062579       14.3385752529  MEMB      55              0.0000000000
      6855        55  CHL1      C10            -4.8999320713      -32.1231059431       15.0155330960  MEMB      55              0.0000000000
      6856        55  CHL1      C19            -4.0317229475      -30.9687934175       14.4374806013  MEMB      55              0.0000000000
      6857        55  CHL1      H19A           -3.0889892254      -31.3473052520       13.9945522073  MEMB      55              0.0000000000
      6858        55  CHL1      H19B           -4.5795616299      -30.4120303930       13.6529276456  MEMB      55              0.0000000000
      6859        55  CHL1      H19C           -3.7737392377      -30.2276126666       15.2178135073  MEMB      55              0.0000000000
      6860        55  CHL1      C1             -6.2988622334      -31.5853948890       15.4076459882  MEMB      55              0.0000000000
      6861        55  CHL1      H1A            -6.6973440263      -30.9686485272       14.5731038382  MEMB      55              0.0000000000
      6862        55  CHL1      H1B            -6.9883364262      -32.4490105386       15.5326039820  MEMB      55              0.0000000000
      6863        55  CHL1      C2             -6.3244802062      -30.7688168733       16.7068262127  MEMB      55              0.0000000000
      6864        55  CHL1      H2A            -7.3788786716      -30.6024550020       16.9881876431  MEMB      55              0.0000000000
      6865        55  CHL1      H2B            -5.8272020492      -29.7861646283       16.5398014697  MEMB      55              0.0000000000
      6866        55  CHL1      C20            -3.6989369118      -35.2195122582        8.8554219967  MEMB      55              0.0000000000
      6867        55  CHL1      H20            -2.7189017677      -34.6970500488        8.7579966565  MEMB      55              0.0000000000
      6868        55  CHL1      C21            -4.7510364171      -34.3014374363        8.1943280301  MEMB      55              0.0000000000
      6869        55  CHL1      H21A           -5.7313669499      -34.8147388974        8.1203358363  MEMB      55              0.0000000000
      6870        55  CHL1      H21B           -4.4133884542      -34.0259969893        7.1720590657  MEMB      55              0.0000000000
      6871        55  CHL1      H21C           -4.8594098289      -33.3417963179        8.7289327860  MEMB      55              0.0000000000
      6872        55  CHL1      C22            -3.5908077197      -36.5537177988        8.0690325864  MEMB      55              0.0000000000
      6873        55  CHL1      H22A           -2.7354144103      -37.1505566949        8.4575518946  MEMB      55              0.0000000000
      6874        55  CHL1      H22B           -4.5147624779      -37.1483541800        8.2269860859  MEMB      55              0.0000000000
      6875        55  CHL1      C23            -3.3825965561      -36.2956434879        6.5727975178  MEMB      55              0.0000000000
      6876        55  CHL1      H23A           -4.2827063519      -35.8137653899        6.1340835626  MEMB      55              0.0000000000
      6877        55  CHL1      H23B           -2.5340100833      -35.5884295903        6.5036651404  MEMB      55              0.0000000000
      6878        55  CHL1      C24            -3.0411075390      -37.4978642387        5.7031776350  MEMB      55              0.0000000000
      6879        55  CHL1      H24A           -2.3091559965      -38.1502789381        6.2305179966  MEMB      55              0.0000000000
      6880        55  CHL1      H24B           -3.9565758071      -38.1016305514        5.5139552432  MEMB      55              0.0000000000
      6881        55  CHL1      C25            -2.4389633915      -37.0673115591        4.3457317407  MEMB      55              0.0000000000
      6882        55  CHL1      H25            -1.4271014465      -36.6238265632        4.5289935013  MEMB      55              0.0000000000
      6883        55  CHL1      C26            -2.2468229708      -38.2948229553        3.4908689354  MEMB      55              0.0000000000
      6884        55  CHL1      H26A           -1.5277638173      -38.9331838647        4.0373949832  MEMB      55              0.0000000000
      6885        55  CHL1      H26B           -3.1935836115      -38.8667794458        3.3831038718  MEMB      55              0.0000000000
      6886        55  CHL1      H26C           -1.8443956754      -38.0638997041        2.4799786291  MEMB      55              0.0000000000
      6887        55  CHL1      C27            -3.2626222159      -36.0325295969        3.5760042102  MEMB      55              0.0000000000
      6888        55  CHL1      H27A           -3.1845108092      -36.1921122495        2.4830002907  MEMB      55              0.0000000000
      6889        55  CHL1      H27B           -4.3289111249      -36.0282813660        3.8769352383  MEMB      55              0.0000000000
      6890        55  CHL1      H27C           -2.8254804323      -35.0424884557        3.7517785170  MEMB      55              0.0000000000
      6891        56  DOPE      N             -26.4841463944      -20.4729071732       18.3757250144  MEMB      56              0.0000000000
      6892        56  DOPE      HN1           -27.4721921897      -20.7320060093       18.5521612546  MEMB      56              0.0000000000
      6893        56  DOPE      HN2           -26.4799411720      -19.4451039403       18.1514245071  MEMB      56              0.0000000000
      6894        56  DOPE      HN3           -26.1040218171      -21.0258056424       17.5903647615  MEMB      56              0.0000000000
      6895        56  DOPE      C12           -25.6213031378      -20.5388199925       19.6140853892  MEMB      56              0.0000000000
      6896        56  DOPE      H12A          -24.5544376301      -20.4907392028       19.3023624790  MEMB      56              0.0000000000
      6897        56  DOPE      H12B          -25.7893747984      -21.4647445533       20.1667217810  MEMB      56              0.0000000000
      6898        56  DOPE      C11           -25.9711163171      -19.3251242162       20.4468141787  MEMB      56              0.0000000000
      6899        56  DOPE      H11A          -25.3987854791      -19.2630571977       21.4010485989  MEMB      56              0.0000000000
      6900        56  DOPE      H11B          -27.0683554890      -19.2754184525       20.6481378542  MEMB      56              0.0000000000
      6901        56  DOPE      P             -26.2927094795      -16.8920948029       19.5594094216  MEMB      56              0.0000000000
      6902        56  DOPE      O13           -25.4995841392      -15.9868106561       20.4162435639  MEMB      56              0.0000000000
      6903        56  DOPE      O14           -27.7459348490      -17.0649739185       19.7406889424  MEMB      56              0.0000000000
      6904        56  DOPE      O11           -25.9704193895      -16.7917602674       18.0483940374  MEMB      56              0.0000000000
      6905        56  DOPE      O12           -25.5958107951      -18.2802458145       19.6259777346  MEMB      56              0.0000000000
      6906        56  DOPE      C1            -24.6155668876      -17.0387300156       17.6683874869  MEMB      56              0.0000000000
      6907        56  DOPE      HA            -24.4895126049      -18.1114865845       17.4155678150  MEMB      56              0.0000000000
      6908        56  DOPE      HB            -23.8942264162      -16.7599517423       18.4789617567  MEMB      56              0.0000000000
      6909        56  DOPE      C2            -24.1812241573      -16.2302933290       16.4435846623  MEMB      56              0.0000000000
      6910        56  DOPE      HS            -24.1750509484      -15.1467579282       16.7212878073  MEMB      56              0.0000000000
      6911        56  DOPE      O21           -25.0630928683      -16.5203603443       15.3143793769  MEMB      56              0.0000000000
      6912        56  DOPE      C21           -26.1867772013      -15.7708178035       15.4358690073  MEMB      56              0.0000000000
      6913        56  DOPE      O22           -26.3955209252      -14.9911992374       16.3380966112  MEMB      56              0.0000000000
      6914        56  DOPE      C22           -27.1033179839      -15.7796077328       14.2292958192  MEMB      56              0.0000000000
      6915        56  DOPE      H2R           -28.1493531612      -15.6442472823       14.5871078454  MEMB      56              0.0000000000
      6916        56  DOPE      H2S           -27.0178797020      -16.7127238085       13.6439131440  MEMB      56              0.0000000000
      6917        56  DOPE      C3            -22.6951446608      -16.5869903774       16.1443337389  MEMB      56              0.0000000000
      6918        56  DOPE      HX            -22.1412557123      -16.5585409125       17.1104800565  MEMB      56              0.0000000000
      6919        56  DOPE      HY            -22.2391627583      -15.7751439955       15.5380442201  MEMB      56              0.0000000000
      6920        56  DOPE      O31           -22.5975999569      -17.9123316144       15.5674980508  MEMB      56              0.0000000000
      6921        56  DOPE      C31           -22.4642940781      -17.8692589838       14.2407294336  MEMB      56              0.0000000000
      6922        56  DOPE      O32           -22.0090319518      -16.9407178441       13.6045732883  MEMB      56              0.0000000000
      6923        56  DOPE      C32           -22.9523314509      -19.1404337678       13.6114376037  MEMB      56              0.0000000000
      6924        56  DOPE      H2X           -22.0374259051      -19.6538058805       13.2371746532  MEMB      56              0.0000000000
      6925        56  DOPE      H2Y           -23.4572836249      -19.8025207838       14.3382903065  MEMB      56              0.0000000000
      6926        56  DOPE      C23           -26.6840162995      -14.5248693512       13.4427365549  MEMB      56              0.0000000000
      6927        56  DOPE      H3R           -25.7289254475      -14.8193377487       12.9912875100  MEMB      56              0.0000000000
      6928        56  DOPE      H3S           -26.4924590127      -13.6515095888       14.1061823576  MEMB      56              0.0000000000
      6929        56  DOPE      C24           -27.5876762179      -14.0764262414       12.3088415616  MEMB      56              0.0000000000
      6930        56  DOPE      H4R           -27.3784185460      -13.0145537998       12.0529069606  MEMB      56              0.0000000000
      6931        56  DOPE      H4S           -28.6427608730      -14.1102625653       12.6559550513  MEMB      56              0.0000000000
      6932        56  DOPE      C25           -27.3395948810      -15.0167982263       11.1238479303  MEMB      56              0.0000000000
      6933        56  DOPE      H5R           -28.1821786502      -15.7163167958       11.2653775260  MEMB      56              0.0000000000
      6934        56  DOPE      H5S           -26.4275644333      -15.6316080364       11.2604578328  MEMB      56              0.0000000000
      6935        56  DOPE      C26           -27.2420712510      -14.4145869471        9.7038259126  MEMB      56              0.0000000000
      6936        56  DOPE      H6R           -26.2311215876      -14.0466587981        9.4327246020  MEMB      56              0.0000000000
      6937        56  DOPE      H6S           -27.9363998873      -13.5525535807        9.6246473195  MEMB      56              0.0000000000
      6938        56  DOPE      C27           -27.5763641544      -15.4418349227        8.6315238006  MEMB      56              0.0000000000
      6939        56  DOPE      H7R           -26.7470593903      -16.1816878964        8.5702304115  MEMB      56              0.0000000000
      6940        56  DOPE      H7S           -27.6558659898      -14.9534349965        7.6329011759  MEMB      56              0.0000000000
      6941        56  DOPE      C28           -28.8624999848      -16.1755740264        8.9948349089  MEMB      56              0.0000000000
      6942        56  DOPE      H8R           -28.6576782850      -16.9157688277        9.7952941824  MEMB      56              0.0000000000
      6943        56  DOPE      H8S           -29.1190069563      -16.7988551462        8.1289648481  MEMB      56              0.0000000000
      6944        56  DOPE      C29           -29.9440606297      -15.2061433015        9.4179678201  MEMB      56              0.0000000000
      6945        56  DOPE      H9R           -29.7308072631      -14.5553434686       10.2814763906  MEMB      56              0.0000000000
      6946        56  DOPE      C210          -31.1474607142      -15.1414548004        8.8780994327  MEMB      56              0.0000000000
      6947        56  DOPE      H10R          -31.9095515451      -14.4898602467        9.3211409531  MEMB      56              0.0000000000
      6948        56  DOPE      C211          -31.5746367216      -16.0444243383        7.7810810617  MEMB      56              0.0000000000
      6949        56  DOPE      H11R          -32.6298790083      -16.3005709822        7.9476489563  MEMB      56              0.0000000000
      6950        56  DOPE      H11S          -31.0016649305      -16.9660944018        7.8326818973  MEMB      56              0.0000000000
      6951        56  DOPE      C212          -31.3535154444      -15.7133142263        6.3261728547  MEMB      56              0.0000000000
      6952        56  DOPE      H12R          -31.9450711095      -14.8187749247        6.1632695868  MEMB      56              0.0000000000
      6953        56  DOPE      H12S          -31.7949365588      -16.5454884768        5.7338477294  MEMB      56              0.0000000000
      6954        56  DOPE      C213          -29.8992046435      -15.6069264869        5.9014009690  MEMB      56              0.0000000000
      6955        56  DOPE      H13R          -29.3750826873      -16.5348045621        6.2097563908  MEMB      56              0.0000000000
      6956        56  DOPE      H13S          -29.4020348688      -14.7336569987        6.3682825931  MEMB      56              0.0000000000
      6957        56  DOPE      C214          -29.7680425161      -15.5603052375        4.4009519756  MEMB      56              0.0000000000
      6958        56  DOPE      H14R          -29.6783547623      -14.5063991024        4.0759829965  MEMB      56              0.0000000000
      6959        56  DOPE      H14S          -30.6459725957      -16.0359561093        3.9397798481  MEMB      56              0.0000000000
      6960        56  DOPE      C215          -28.6428125110      -16.3923266743        3.8609355962  MEMB      56              0.0000000000
      6961        56  DOPE      H15R          -28.9373513827      -16.8102718976        2.8705900066  MEMB      56              0.0000000000
      6962        56  DOPE      H15S          -28.4405877299      -17.2668525445        4.4993262878  MEMB      56              0.0000000000
      6963        56  DOPE      C216          -27.4255813214      -15.5198950277        3.7426709394  MEMB      56              0.0000000000
      6964        56  DOPE      H16R          -26.9539995518      -15.4228060547        4.7437607202  MEMB      56              0.0000000000
      6965        56  DOPE      H16S          -27.6985841845      -14.4927709208        3.4094445292  MEMB      56              0.0000000000
      6966        56  DOPE      C217          -26.5364296852      -16.1379937855        2.6981479193  MEMB      56              0.0000000000
      6967        56  DOPE      H17R          -26.3854082163      -17.2105827015        2.9499397364  MEMB      56              0.0000000000
      6968        56  DOPE      H17S          -25.5621069830      -15.6450434925        2.7640417647  MEMB      56              0.0000000000
      6969        56  DOPE      C218          -27.1062772240      -15.9849963136        1.2887573633  MEMB      56              0.0000000000
      6970        56  DOPE      H18R          -27.6722968551      -16.8994061586        1.0091689021  MEMB      56              0.0000000000
      6971        56  DOPE      H18S          -26.3095056190      -15.7998457834        0.5491192183  MEMB      56              0.0000000000
      6972        56  DOPE      H18T          -27.7894784069      -15.1148158462        1.2380960469  MEMB      56              0.0000000000
      6973        56  DOPE      C33           -23.8700917920      -18.8221809988       12.4162759261  MEMB      56              0.0000000000
      6974        56  DOPE      H3X           -23.5673697035      -17.8755670157       11.8981242207  MEMB      56              0.0000000000
      6975        56  DOPE      H3Y           -24.9313727711      -18.7107034209       12.7193849793  MEMB      56              0.0000000000
      6976        56  DOPE      C34           -23.6284367781      -19.9317349210       11.4090403693  MEMB      56              0.0000000000
      6977        56  DOPE      H4X           -22.5856919260      -19.6953443060       11.1069962573  MEMB      56              0.0000000000
      6978        56  DOPE      H4Y           -23.6810676109      -20.9378437082       11.8849573649  MEMB      56              0.0000000000
      6979        56  DOPE      C35           -24.4607542820      -19.8934113271       10.1467809925  MEMB      56              0.0000000000
      6980        56  DOPE      H5X           -23.8401620669      -20.1540775295        9.2596258868  MEMB      56              0.0000000000
      6981        56  DOPE      H5Y           -24.7642173760      -18.8322512717       10.0341008833  MEMB      56              0.0000000000
      6982        56  DOPE      C36           -25.6367082942      -20.8738040442       10.2222986793  MEMB      56              0.0000000000
      6983        56  DOPE      H6X           -26.1845327241      -20.6812420781       11.1716508901  MEMB      56              0.0000000000
      6984        56  DOPE      H6Y           -25.2562794381      -21.9204911887       10.2484751161  MEMB      56              0.0000000000
      6985        56  DOPE      C37           -26.6228040784      -20.7266573849        9.0650275471  MEMB      56              0.0000000000
      6986        56  DOPE      H7X           -26.1995549186      -21.1879305103        8.1431665683  MEMB      56              0.0000000000
      6987        56  DOPE      H7Y           -27.5620455986      -21.2704278571        9.3190344673  MEMB      56              0.0000000000
      6988        56  DOPE      C38           -26.9164125349      -19.2496995834        8.8027286026  MEMB      56              0.0000000000
      6989        56  DOPE      H8X           -25.9817790657      -18.7464005986        8.4851068088  MEMB      56              0.0000000000
      6990        56  DOPE      H8Y           -27.2425644661      -18.7605270234        9.7489509245  MEMB      56              0.0000000000
      6991        56  DOPE      C39           -27.9374345447      -19.0773919036        7.7329578198  MEMB      56              0.0000000000
      6992        56  DOPE      H9X           -28.9677326978      -19.1147012881        8.0788392847  MEMB      56              0.0000000000
      6993        56  DOPE      C310          -27.6836599077      -18.9385780102        6.4297277482  MEMB      56              0.0000000000
      6994        56  DOPE      H10X          -28.5289409557      -18.8022076723        5.7448690574  MEMB      56              0.0000000000
      6995        56  DOPE      C311          -26.3123184736      -18.9413938277        5.8183615622  MEMB      56              0.0000000000
      6996        56  DOPE      H11X          -25.7606631381      -19.8154931584        6.2322449078  MEMB      56              0.0000000000
      6997        56  DOPE      H11Y          -26.3865680527      -19.1073693062        4.7208022489  MEMB      56              0.0000000000
      6998        56  DOPE      C312          -25.4142832094      -17.7132117231        6.0590894317  MEMB      56              0.0000000000
      6999        56  DOPE      H12X          -25.6024706539      -17.2597696146        7.0550797284  MEMB      56              0.0000000000
      7000        56  DOPE      H12Y          -25.6420169769      -16.9286701393        5.3128707611  MEMB      56              0.0000000000
      7001        56  DOPE      C313          -23.9242027307      -18.0922278091        5.9859504108  MEMB      56              0.0000000000
      7002        56  DOPE      H13X          -23.3126494776      -17.1714581967        6.1089199766  MEMB      56              0.0000000000
      7003        56  DOPE      H13Y          -23.7010124609      -18.7593334570        6.8501097195  MEMB      56              0.0000000000
      7004        56  DOPE      C314          -23.5122036729      -18.7971845868        4.6727941212  MEMB      56              0.0000000000
      7005        56  DOPE      H14X          -24.1577114518      -19.6815753472        4.4988363314  MEMB      56              0.0000000000
      7006        56  DOPE      H14Y          -22.4739063645      -19.1796998760        4.8117378393  MEMB      56              0.0000000000
      7007        56  DOPE      C315          -23.5088018490      -17.8040283441        3.4907053468  MEMB      56              0.0000000000
      7008        56  DOPE      H15X          -22.4690432908      -17.4224471596        3.4054420517  MEMB      56              0.0000000000
      7009        56  DOPE      H15Y          -24.1448381933      -16.9430198133        3.7791612423  MEMB      56              0.0000000000
      7010        56  DOPE      C316          -23.9561566459      -18.2440944545        2.0767923658  MEMB      56              0.0000000000
      7011        56  DOPE      H16X          -25.0379182339      -18.4856454925        2.0484216037  MEMB      56              0.0000000000
      7012        56  DOPE      H16Y          -23.3875874927      -19.1436767987        1.7762751322  MEMB      56              0.0000000000
      7013        56  DOPE      C317          -23.6867337041      -17.1223916180        1.0523050576  MEMB      56              0.0000000000
      7014        56  DOPE      H17X          -24.2244921015      -16.2219497715        1.3855150344  MEMB      56              0.0000000000
      7015        56  DOPE      H17Y          -22.6070249315      -16.8826612368        1.1129726175  MEMB      56              0.0000000000
      7016        56  DOPE      C318          -24.1047445765      -17.3257454293       -0.4061599780  MEMB      56              0.0000000000
      7017        56  DOPE      H18X          -23.5014011742      -16.6837585585       -1.0893266677  MEMB      56              0.0000000000
      7018        56  DOPE      H18Y          -23.9563607351      -18.3753524142       -0.6932994844  MEMB      56              0.0000000000
      7019        56  DOPE      H18Z          -25.1753151381      -17.0807058916       -0.5612460945  MEMB      56              0.0000000000
      7020        57  CHL1      C3              8.1032036019      -31.2413782764       17.5447109926  MEMB      57              0.0000000000
      7021        57  CHL1      H3              7.9470884473      -32.3307723000       17.6909270054  MEMB      57              0.0000000000
      7022        57  CHL1      O3              8.2531099150      -30.6351431733       18.8210655765  MEMB      57              0.0000000000
      7023        57  CHL1      H3'             7.9010030148      -29.7445139425       18.6896511602  MEMB      57              0.0000000000
      7024        57  CHL1      C4              9.3950503691      -31.0091106210       16.7274036738  MEMB      57              0.0000000000
      7025        57  CHL1      H4A             9.7279184347      -29.9667314565       16.9136103643  MEMB      57              0.0000000000
      7026        57  CHL1      H4B            10.1777036267      -31.6671144130       17.1673584960  MEMB      57              0.0000000000
      7027        57  CHL1      C5              9.3086222915      -31.2050052773       15.2270295900  MEMB      57              0.0000000000
      7028        57  CHL1      C6             10.2291343577      -31.8856352303       14.5200302207  MEMB      57              0.0000000000
      7029        57  CHL1      H6             11.0950219325      -32.3329548624       15.0303647509  MEMB      57              0.0000000000
      7030        57  CHL1      C7             10.2588375537      -31.9217100546       13.0168880896  MEMB      57              0.0000000000
      7031        57  CHL1      H7A            11.2941745099      -31.7579974575       12.6444806873  MEMB      57              0.0000000000
      7032        57  CHL1      H7B             9.9286794358      -32.9183233655       12.6508702049  MEMB      57              0.0000000000
      7033        57  CHL1      C8              9.3397578574      -30.8311459972       12.4051234289  MEMB      57              0.0000000000
      7034        57  CHL1      H8              9.8083238934      -29.8390705115       12.5784712726  MEMB      57              0.0000000000
      7035        57  CHL1      C14             9.2346926900      -31.0213987505       10.9106213285  MEMB      57              0.0000000000
      7036        57  CHL1      H14             8.8285343909      -32.0550482528       10.7589790517  MEMB      57              0.0000000000
      7037        57  CHL1      C15            10.5425794185      -30.9592013346       10.0962960390  MEMB      57              0.0000000000
      7038        57  CHL1      H15A           11.1287218867      -30.0652515541       10.4046425388  MEMB      57              0.0000000000
      7039        57  CHL1      H15B           11.1719823608      -31.8599987511       10.2253047388  MEMB      57              0.0000000000
      7040        57  CHL1      C16            10.0374814564      -30.7885185353        8.6581619713  MEMB      57              0.0000000000
      7041        57  CHL1      H16A           10.5291961416      -29.9049590400        8.1941669574  MEMB      57              0.0000000000
      7042        57  CHL1      H16B           10.2469944824      -31.6831642359        8.0385151979  MEMB      57              0.0000000000
      7043        57  CHL1      C17             8.4943447208      -30.5498630922        8.7782490620  MEMB      57              0.0000000000
      7044        57  CHL1      H17             8.0100647616      -31.5554679997        8.7039832661  MEMB      57              0.0000000000
      7045        57  CHL1      C13             8.2624767874      -30.0785387067       10.2115295399  MEMB      57              0.0000000000
      7046        57  CHL1      C18             8.7282449350      -28.5987918198       10.3125811439  MEMB      57              0.0000000000
      7047        57  CHL1      H18A            8.8414969211      -28.2806577688       11.3658460852  MEMB      57              0.0000000000
      7048        57  CHL1      H18B            9.6994797398      -28.4330274343        9.8066968057  MEMB      57              0.0000000000
      7049        57  CHL1      H18C            7.9898060747      -27.9246852272        9.8371051747  MEMB      57              0.0000000000
      7050        57  CHL1      C12             6.8641152416      -30.3100684567       10.8186460774  MEMB      57              0.0000000000
      7051        57  CHL1      H12A            6.0977217501      -29.6479549450       10.3763474693  MEMB      57              0.0000000000
      7052        57  CHL1      H12B            6.5605128592      -31.3633160277       10.6338414539  MEMB      57              0.0000000000
      7053        57  CHL1      C11             6.8836095586      -30.0309096071       12.3249105595  MEMB      57              0.0000000000
      7054        57  CHL1      H11A            7.0786123483      -28.9426905679       12.4301841857  MEMB      57              0.0000000000
      7055        57  CHL1      H11B            5.8779906001      -30.2330375199       12.7448727693  MEMB      57              0.0000000000
      7056        57  CHL1      C9              7.9583398270      -30.8704088832       13.0747408860  MEMB      57              0.0000000000
      7057        57  CHL1      H9              7.6098799973      -31.9289001425       12.9837371603  MEMB      57              0.0000000000
      7058        57  CHL1      C10             8.0810534640      -30.5519589972       14.5848074879  MEMB      57              0.0000000000
      7059        57  CHL1      C19             8.2409189608      -29.0343045519       14.7230557883  MEMB      57              0.0000000000
      7060        57  CHL1      H19A            7.2638335721      -28.5831100989       14.4611117628  MEMB      57              0.0000000000
      7061        57  CHL1      H19B            8.4751161634      -28.6994972573       15.7508240597  MEMB      57              0.0000000000
      7062        57  CHL1      H19C            9.0160912715      -28.6211807570       14.0502448827  MEMB      57              0.0000000000
      7063        57  CHL1      C1              6.7984826738      -30.9646286889       15.3544367046  MEMB      57              0.0000000000
      7064        57  CHL1      H1A             5.9258853593      -30.4140923069       14.9382608449  MEMB      57              0.0000000000
      7065        57  CHL1      H1B             6.5971703326      -32.0452399798       15.2016709474  MEMB      57              0.0000000000
      7066        57  CHL1      C2              6.8619950480      -30.6427531130       16.8637768992  MEMB      57              0.0000000000
      7067        57  CHL1      H2A             5.9455898215      -31.0301032403       17.3627446125  MEMB      57              0.0000000000
      7068        57  CHL1      H2B             6.8632079206      -29.5394454635       16.9986185117  MEMB      57              0.0000000000
      7069        57  CHL1      C20             7.9591487028      -29.7107738041        7.6357879637  MEMB      57              0.0000000000
      7070        57  CHL1      H20             8.4962691857      -28.7334831165        7.5993872719  MEMB      57              0.0000000000
      7071        57  CHL1      C21             6.4528440704      -29.3881392062        7.7987944114  MEMB      57              0.0000000000
      7072        57  CHL1      H21A            5.8619821375      -30.3153570145        7.9407535582  MEMB      57              0.0000000000
      7073        57  CHL1      H21B            6.0448497520      -28.8395532734        6.9273567488  MEMB      57              0.0000000000
      7074        57  CHL1      H21C            6.2891687379      -28.7003422394        8.6484540512  MEMB      57              0.0000000000
      7075        57  CHL1      C22             8.2555438000      -30.4518039098        6.3183326107  MEMB      57              0.0000000000
      7076        57  CHL1      H22A            9.3457675666      -30.3968297073        6.0963221979  MEMB      57              0.0000000000
      7077        57  CHL1      H22B            7.9717533460      -31.5260222507        6.3926553425  MEMB      57              0.0000000000
      7078        57  CHL1      C23             7.4785725967      -29.8193235180        5.1877993079  MEMB      57              0.0000000000
      7079        57  CHL1      H23A            6.4052745990      -30.1037778126        5.2820860683  MEMB      57              0.0000000000
      7080        57  CHL1      H23B            7.5676976797      -28.7103181739        5.2916565419  MEMB      57              0.0000000000
      7081        57  CHL1      C24             7.9678401356      -30.1981444953        3.8124861261  MEMB      57              0.0000000000
      7082        57  CHL1      H24A            9.0712757085      -30.0609758415        3.7422416998  MEMB      57              0.0000000000
      7083        57  CHL1      H24B            7.7334711412      -31.2583624700        3.5712811268  MEMB      57              0.0000000000
      7084        57  CHL1      C25             7.3093820154      -29.2553292352        2.8179003941  MEMB      57              0.0000000000
      7085        57  CHL1      H25             7.4925596014      -28.2030925678        3.1471268972  MEMB      57              0.0000000000
      7086        57  CHL1      C26             7.9709213310      -29.4498840222        1.4695019551  MEMB      57              0.0000000000
      7087        57  CHL1      H26A            8.1801149258      -30.5166410823        1.2913503157  MEMB      57              0.0000000000
      7088        57  CHL1      H26B            7.3820703793      -29.0131444120        0.6341943651  MEMB      57              0.0000000000
      7089        57  CHL1      H26C            8.9616167694      -28.9601646369        1.5175240392  MEMB      57              0.0000000000
      7090        57  CHL1      C27             5.7976512701      -29.4027027158        2.7744147651  MEMB      57              0.0000000000
      7091        57  CHL1      H27A            5.4258943713      -28.6796232462        2.0215482855  MEMB      57              0.0000000000
      7092        57  CHL1      H27B            5.4861801758      -30.4336534654        2.5062705649  MEMB      57              0.0000000000
      7093        57  CHL1      H27C            5.3333924638      -29.1322962665        3.7431826040  MEMB      57              0.0000000000
      7094        58  DOPC      N               3.4118914629       32.7420850026       19.5353893337  MEMB      58              0.0000000000
      7095        58  DOPC      C12             2.4604961393       32.7593425520       18.3544323460  MEMB      58              0.0000000000
      7096        58  DOPC      H12A            1.7523731362       31.9284110349       18.4450639780  MEMB      58              0.0000000000
      7097        58  DOPC      H12B            3.0124626902       32.6077531303       17.4374208492  MEMB      58              0.0000000000
      7098        58  DOPC      C13             4.1326026739       31.4335014278       19.6137047370  MEMB      58              0.0000000000
      7099        58  DOPC      H13A            3.4209757575       30.6233551766       19.6807013380  MEMB      58              0.0000000000
      7100        58  DOPC      H13B            4.7784283997       31.2721711795       18.7596670993  MEMB      58              0.0000000000
      7101        58  DOPC      H13C            4.7691073140       31.3937574908       20.4971254978  MEMB      58              0.0000000000
      7102        58  DOPC      C14             2.5967376837       32.9129289630       20.7789167244  MEMB      58              0.0000000000
      7103        58  DOPC      H14A            3.2033845915       32.9479497506       21.6665095470  MEMB      58              0.0000000000
      7104        58  DOPC      H14B            2.0192892375       33.8347458809       20.6766058328  MEMB      58              0.0000000000
      7105        58  DOPC      H14C            1.8340483501       32.1419209350       20.8363659911  MEMB      58              0.0000000000
      7106        58  DOPC      C15             4.4031944569       33.8559866332       19.4367003986  MEMB      58              0.0000000000
      7107        58  DOPC      H15A            3.9211978698       34.8219200024       19.5002984459  MEMB      58              0.0000000000
      7108        58  DOPC      H15B            4.9866211769       33.8210300238       18.5171919253  MEMB      58              0.0000000000
      7109        58  DOPC      H15C            5.1439766017       33.7582028484       20.2273074909  MEMB      58              0.0000000000
      7110        58  DOPC      C11             1.6059217244       34.0380265591       18.1998468651  MEMB      58              0.0000000000
      7111        58  DOPC      H11A            2.2651013427       34.9293173833       18.1607967896  MEMB      58              0.0000000000
      7112        58  DOPC      H11B            1.0972837913       33.9772010537       17.2037529865  MEMB      58              0.0000000000
      7113        58  DOPC      P              -0.7049790914       33.4332761319       19.2211675866  MEMB      58              0.0000000000
      7114        58  DOPC      O13            -1.5228768899       33.7040333854       20.4271475373  MEMB      58              0.0000000000
      7115        58  DOPC      O14            -0.2973969146       32.0402385305       18.9444896170  MEMB      58              0.0000000000
      7116        58  DOPC      O12             0.6692848645       34.2411171530       19.2732146583  MEMB      58              0.0000000000
      7117        58  DOPC      O11            -1.4738623853       34.0704168294       17.9796186123  MEMB      58              0.0000000000
      7118        58  DOPC      C1             -1.1468336652       35.3663080493       17.4807112078  MEMB      58              0.0000000000
      7119        58  DOPC      HA             -0.0983057984       35.6776294874       17.6663422054  MEMB      58              0.0000000000
      7120        58  DOPC      HB             -1.7749336272       36.1253667337       17.9816151815  MEMB      58              0.0000000000
      7121        58  DOPC      C2             -1.3383810415       35.4448937292       15.9489807164  MEMB      58              0.0000000000
      7122        58  DOPC      HS             -2.4444329748       35.4837304566       15.8203887264  MEMB      58              0.0000000000
      7123        58  DOPC      O21            -0.7217005052       34.3283829056       15.2597292153  MEMB      58              0.0000000000
      7124        58  DOPC      C21            -1.5151615963       33.7857071078       14.3315843547  MEMB      58              0.0000000000
      7125        58  DOPC      O22            -2.7320940041       33.8690305677       14.3450236378  MEMB      58              0.0000000000
      7126        58  DOPC      C22            -0.7003315908       33.1911533223       13.1823641554  MEMB      58              0.0000000000
      7127        58  DOPC      H2R             0.2372950261       33.7722034228       13.0966597587  MEMB      58              0.0000000000
      7128        58  DOPC      H2S            -1.2834016020       33.3460766934       12.2505780069  MEMB      58              0.0000000000
      7129        58  DOPC      C3             -0.7684968696       36.7790832885       15.3774463106  MEMB      58              0.0000000000
      7130        58  DOPC      HX             -1.2694540006       37.6083996016       15.9246773446  MEMB      58              0.0000000000
      7131        58  DOPC      HY             -1.0978871498       36.8660710932       14.3159223381  MEMB      58              0.0000000000
      7132        58  DOPC      O31             0.6691913782       36.9082976408       15.5500961318  MEMB      58              0.0000000000
      7133        58  DOPC      C31             1.3860395259       36.4408684984       14.5154252087  MEMB      58              0.0000000000
      7134        58  DOPC      O32             0.9132559569       35.9920897405       13.4896272863  MEMB      58              0.0000000000
      7135        58  DOPC      C32             2.8853650012       36.5180857751       14.7986563975  MEMB      58              0.0000000000
      7136        58  DOPC      H2X             3.2955091463       37.3912872585       14.2502436616  MEMB      58              0.0000000000
      7137        58  DOPC      H2Y             3.0512654652       36.6749466400       15.8836150409  MEMB      58              0.0000000000
      7138        58  DOPC      C23            -0.3549815074       31.6989022756       13.3536450372  MEMB      58              0.0000000000
      7139        58  DOPC      H3R            -1.2728077774       31.0777118268       13.2550875955  MEMB      58              0.0000000000
      7140        58  DOPC      H3S             0.0326083661       31.5364523315       14.3870574155  MEMB      58              0.0000000000
      7141        58  DOPC      C24             0.7248840342       31.2374342211       12.3603577817  MEMB      58              0.0000000000
      7142        58  DOPC      H4R             1.3218097840       30.4417589331       12.8620137288  MEMB      58              0.0000000000
      7143        58  DOPC      H4S             1.4205320591       32.0716574568       12.1198188776  MEMB      58              0.0000000000
      7144        58  DOPC      C25             0.1533977287       30.6319577811       11.0688802296  MEMB      58              0.0000000000
      7145        58  DOPC      H5R            -0.8192991237       30.1367137188       11.2856249564  MEMB      58              0.0000000000
      7146        58  DOPC      H5S             0.8497446382       29.8418766503       10.7013438105  MEMB      58              0.0000000000
      7147        58  DOPC      C26            -0.0301782949       31.6450809863        9.9320177743  MEMB      58              0.0000000000
      7148        58  DOPC      H6R             0.9676436875       32.0728011204        9.6844245570  MEMB      58              0.0000000000
      7149        58  DOPC      H6S            -0.6849747810       32.4817643854       10.2598890009  MEMB      58              0.0000000000
      7150        58  DOPC      C27            -0.6464894802       30.9639847362        8.6995605560  MEMB      58              0.0000000000
      7151        58  DOPC      H7R            -1.6807488032       30.6463568443        8.9677968815  MEMB      58              0.0000000000
      7152        58  DOPC      H7S            -0.0645290275       30.0414821867        8.4727339258  MEMB      58              0.0000000000
      7153        58  DOPC      C28            -0.7161980666       31.8315866783        7.4306797985  MEMB      58              0.0000000000
      7154        58  DOPC      H8R            -1.3942544325       32.6933175279        7.6230486221  MEMB      58              0.0000000000
      7155        58  DOPC      H8S            -1.1840447320       31.2181890689        6.6270628636  MEMB      58              0.0000000000
      7156        58  DOPC      C29             0.6297730735       32.3275814617        6.9764825898  MEMB      58              0.0000000000
      7157        58  DOPC      H9R             1.4920052030       31.9842297514        7.5672719888  MEMB      58              0.0000000000
      7158        58  DOPC      C210            0.8334186678       33.0858127654        5.8876560283  MEMB      58              0.0000000000
      7159        58  DOPC      H10R            1.8397100897       33.4417426778        5.6562205557  MEMB      58              0.0000000000
      7160        58  DOPC      C211           -0.2283665388       33.5642868266        4.9405697805  MEMB      58              0.0000000000
      7161        58  DOPC      H11R           -1.1376895788       32.9271385818        5.0173155889  MEMB      58              0.0000000000
      7162        58  DOPC      H11S            0.1262782656       33.4621931542        3.8921517124  MEMB      58              0.0000000000
      7163        58  DOPC      C212           -0.6542415456       35.0201311005        5.1745615373  MEMB      58              0.0000000000
      7164        58  DOPC      H12R            0.1501236168       35.7234635088        4.8650572810  MEMB      58              0.0000000000
      7165        58  DOPC      H12S           -0.8333711882       35.1919753235        6.2617253612  MEMB      58              0.0000000000
      7166        58  DOPC      C213           -1.9585717612       35.2973479567        4.4213374737  MEMB      58              0.0000000000
      7167        58  DOPC      H13R           -2.4347959641       36.2178086395        4.8176647339  MEMB      58              0.0000000000
      7168        58  DOPC      H13S           -2.6735370031       34.4764162754        4.6620135275  MEMB      58              0.0000000000
      7169        58  DOPC      C214           -1.8186907998       35.3667589863        2.8844717518  MEMB      58              0.0000000000
      7170        58  DOPC      H14R           -2.7493693847       35.8355875920        2.4931396874  MEMB      58              0.0000000000
      7171        58  DOPC      H14S           -1.7787866979       34.3303405997        2.4854806513  MEMB      58              0.0000000000
      7172        58  DOPC      C215           -0.6048294241       36.1180242319        2.2996262226  MEMB      58              0.0000000000
      7173        58  DOPC      H15R            0.2698031441       35.4551148683        2.3133195912  MEMB      58              0.0000000000
      7174        58  DOPC      H15S           -0.2730384388       36.9856560211        2.8973718803  MEMB      58              0.0000000000
      7175        58  DOPC      C216           -0.8795382009       36.6149211820        0.8755057711  MEMB      58              0.0000000000
      7176        58  DOPC      H16R           -1.8887918328       37.0751776298        0.8424414997  MEMB      58              0.0000000000
      7177        58  DOPC      H16S           -0.8725909209       35.7517528771        0.1739640032  MEMB      58              0.0000000000
      7178        58  DOPC      C217            0.1448226573       37.6450362846        0.4065436769  MEMB      58              0.0000000000
      7179        58  DOPC      H17R            1.1344959782       37.1435511671        0.4776877616  MEMB      58              0.0000000000
      7180        58  DOPC      H17S            0.1526990456       38.5255708703        1.0901531749  MEMB      58              0.0000000000
      7181        58  DOPC      C218           -0.0982495329       38.1202949920       -1.0244707904  MEMB      58              0.0000000000
      7182        58  DOPC      H18R            0.8240100778       38.5499914676       -1.4682919034  MEMB      58              0.0000000000
      7183        58  DOPC      H18S           -0.8903469092       38.8966431642       -1.0423155743  MEMB      58              0.0000000000
      7184        58  DOPC      H18T           -0.4310704592       37.2695867581       -1.6567965098  MEMB      58              0.0000000000
      7185        58  DOPC      C33             3.6284009320       35.2474179108       14.3347299728  MEMB      58              0.0000000000
      7186        58  DOPC      H3X             3.3509991037       35.0097027169       13.2804160340  MEMB      58              0.0000000000
      7187        58  DOPC      H3Y             3.3234630774       34.3918473268       14.9772251952  MEMB      58              0.0000000000
      7188        58  DOPC      C34             5.1558208101       35.4075423294       14.4204523977  MEMB      58              0.0000000000
      7189        58  DOPC      H4X             5.4370690254       35.8601026323       15.4001388444  MEMB      58              0.0000000000
      7190        58  DOPC      H4Y             5.4888620920       36.1197875270       13.6303518778  MEMB      58              0.0000000000
      7191        58  DOPC      C35             5.9194206366       34.0823641262       14.2672282282  MEMB      58              0.0000000000
      7192        58  DOPC      H5X             5.7166723068       33.4348327220       15.1474679641  MEMB      58              0.0000000000
      7193        58  DOPC      H5Y             7.0119549295       34.3059775280       14.2774262588  MEMB      58              0.0000000000
      7194        58  DOPC      C36             5.5855791427       33.3142619264       12.9803429130  MEMB      58              0.0000000000
      7195        58  DOPC      H6X             6.1367298276       32.3447660995       12.9899217040  MEMB      58              0.0000000000
      7196        58  DOPC      H6Y             4.5012770807       33.0746896976       12.9327297406  MEMB      58              0.0000000000
      7197        58  DOPC      C37             6.0216739744       34.0950555096       11.7343448504  MEMB      58              0.0000000000
      7198        58  DOPC      H7X             5.4875792276       35.0686200731       11.6652624354  MEMB      58              0.0000000000
      7199        58  DOPC      H7Y             7.1025673622       34.3296058498       11.8614241623  MEMB      58              0.0000000000
      7200        58  DOPC      C38             5.8549310494       33.2997088670       10.4334370723  MEMB      58              0.0000000000
      7201        58  DOPC      H8X             6.2094210430       32.2558086005       10.5899115132  MEMB      58              0.0000000000
      7202        58  DOPC      H8Y             6.5279629215       33.7673585220        9.6769926717  MEMB      58              0.0000000000
      7203        58  DOPC      C39             4.4333810018       33.3294460038        9.9422144510  MEMB      58              0.0000000000
      7204        58  DOPC      H9X             3.6611086391       33.5691154255       10.6912926995  MEMB      58              0.0000000000
      7205        58  DOPC      C310            4.0750534733       33.0572782973        8.6795875240  MEMB      58              0.0000000000
      7206        58  DOPC      H10X            3.0235855543       33.1843496447        8.3794874870  MEMB      58              0.0000000000
      7207        58  DOPC      C311            5.0362456472       32.6777147104        7.5812387144  MEMB      58              0.0000000000
      7208        58  DOPC      H11X            4.5483925126       31.9345693680        6.9112543255  MEMB      58              0.0000000000
      7209        58  DOPC      H11Y            5.9394076674       32.1714644647        7.9913421241  MEMB      58              0.0000000000
      7210        58  DOPC      C312            5.4954047211       33.8726919316        6.7231118571  MEMB      58              0.0000000000
      7211        58  DOPC      H12X            6.2613157766       33.4989182647        6.0062544659  MEMB      58              0.0000000000
      7212        58  DOPC      H12Y            5.9787986591       34.6551448660        7.3485392513  MEMB      58              0.0000000000
      7213        58  DOPC      C313            4.3200851359       34.4572597462        5.9298504451  MEMB      58              0.0000000000
      7214        58  DOPC      H13X            3.7351870316       33.5811275601        5.5871868426  MEMB      58              0.0000000000
      7215        58  DOPC      H13Y            3.6790176719       35.0629676136        6.6076917373  MEMB      58              0.0000000000
      7216        58  DOPC      C314            4.6924201862       35.2645744643        4.6790748478  MEMB      58              0.0000000000
      7217        58  DOPC      H14X            3.8561898722       35.9550226713        4.4258878067  MEMB      58              0.0000000000
      7218        58  DOPC      H14Y            5.5890703095       35.8852072802        4.9036496758  MEMB      58              0.0000000000
      7219        58  DOPC      C315            4.9732894212       34.3692208674        3.4576937667  MEMB      58              0.0000000000
      7220        58  DOPC      H15X            5.6894943724       33.5780649920        3.7744351918  MEMB      58              0.0000000000
      7221        58  DOPC      H15Y            5.4770053487       34.9693941829        2.6680846082  MEMB      58              0.0000000000
      7222        58  DOPC      C316            3.7391693114       33.6762104134        2.8441332114  MEMB      58              0.0000000000
      7223        58  DOPC      H16X            4.1062973870       32.8706544087        2.1676174487  MEMB      58              0.0000000000
      7224        58  DOPC      H16Y            3.1196587208       33.1862386716        3.6248075044  MEMB      58              0.0000000000
      7225        58  DOPC      C317            2.8435375788       34.5899591408        2.0005932217  MEMB      58              0.0000000000
      7226        58  DOPC      H17X            2.3499802119       35.3349028987        2.6646202369  MEMB      58              0.0000000000
      7227        58  DOPC      H17Y            3.4763896464       35.1553922171        1.2824686959  MEMB      58              0.0000000000
      7228        58  DOPC      C318            1.7874689963       33.8046547518        1.2112961847  MEMB      58              0.0000000000
      7229        58  DOPC      H18X            2.2596144798       33.0222466973        0.5828244580  MEMB      58              0.0000000000
      7230        58  DOPC      H18Y            1.0617736119       33.3161089605        1.8952942635  MEMB      58              0.0000000000
      7231        58  DOPC      H18Z            1.2148705683       34.4887765628        0.5486897259  MEMB      58              0.0000000000
      7232        59  23SM      N             -33.4151411012        6.3913155873       27.1642084785  MEMB      59              0.0000000000
      7233        59  23SM      C15           -32.7451620761        6.5059992350       28.4904961133  MEMB      59              0.0000000000
      7234        59  23SM      H15A          -31.8185720344        7.0594562549       28.4575371719  MEMB      59              0.0000000000
      7235        59  23SM      H15B          -32.5146695546        5.5239068455       28.8986534774  MEMB      59              0.0000000000
      7236        59  23SM      H15C          -33.3881826807        6.9995517488       29.2191383528  MEMB      59              0.0000000000
      7237        59  23SM      C14           -34.5931612492        5.4870369220       27.2644355204  MEMB      59              0.0000000000
      7238        59  23SM      H14A          -34.3041514282        4.4430827801       27.3605143545  MEMB      59              0.0000000000
      7239        59  23SM      H14B          -35.1277852801        5.5023410993       26.3039171053  MEMB      59              0.0000000000
      7240        59  23SM      H14C          -35.2866978885        5.7362456637       28.0434438318  MEMB      59              0.0000000000
      7241        59  23SM      C13           -33.9013564949        7.7217118418       26.6517172724  MEMB      59              0.0000000000
      7242        59  23SM      H13A          -34.3163603402        7.5995972218       25.6517069742  MEMB      59              0.0000000000
      7243        59  23SM      H13B          -33.1267600648        8.4812202186       26.6278236739  MEMB      59              0.0000000000
      7244        59  23SM      H13C          -34.7189515445        8.1080171560       27.2419984649  MEMB      59              0.0000000000
      7245        59  23SM      C12           -32.4798360788        5.8153008842       26.1137253199  MEMB      59              0.0000000000
      7246        59  23SM      H12A          -31.8716927618        5.0068313727       26.5334262737  MEMB      59              0.0000000000
      7247        59  23SM      H12B          -31.8022738219        6.6035667740       25.8194109941  MEMB      59              0.0000000000
      7248        59  23SM      C11           -33.1927367384        5.1985452219       24.8762837026  MEMB      59              0.0000000000
      7249        59  23SM      H11A          -32.4690325303        5.1260390734       24.0256481125  MEMB      59              0.0000000000
      7250        59  23SM      H11B          -33.9964047919        5.8780847998       24.5224828397  MEMB      59              0.0000000000
      7251        59  23SM      P             -32.8159749187        2.7075962315       25.3132663964  MEMB      59              0.0000000000
      7252        59  23SM      O13           -31.8110243844        3.0728785082       26.3130082861  MEMB      59              0.0000000000
      7253        59  23SM      O14           -33.5292027275        1.4206543583       25.4957333631  MEMB      59              0.0000000000
      7254        59  23SM      O11           -32.1035223494        2.6705315790       23.8836179439  MEMB      59              0.0000000000
      7255        59  23SM      O12           -33.8001429136        3.9322151713       25.1975211608  MEMB      59              0.0000000000
      7256        59  23SM      C1S           -33.0178962289        2.3738085821       22.8146254165  MEMB      59              0.0000000000
      7257        59  23SM      H1S           -33.9272256635        3.0049386113       22.9154383509  MEMB      59              0.0000000000
      7258        59  23SM      H1T           -33.3603148185        1.3124847542       22.8314523484  MEMB      59              0.0000000000
      7259        59  23SM      NF            -33.4140970105        2.6841183062       20.3919856128  MEMB      59              0.0000000000
      7260        59  23SM      HNF           -33.1157467332        2.2669819239       19.5349426198  MEMB      59              0.0000000000
      7261        59  23SM      C2S           -32.3851893098        2.6838224838       21.4404999466  MEMB      59              0.0000000000
      7262        59  23SM      H2S           -31.9458207106        3.7046343200       21.4801924920  MEMB      59              0.0000000000
      7263        59  23SM      C3S           -31.2381560468        1.6551580478       21.1248614143  MEMB      59              0.0000000000
      7264        59  23SM      H3S           -31.6716471456        0.6284072894       21.2053282758  MEMB      59              0.0000000000
      7265        59  23SM      O3            -30.1100210600        1.6456064801       22.0151793634  MEMB      59              0.0000000000
      7266        59  23SM      HO3           -30.3975740997        2.1693742200       22.7724627682  MEMB      59              0.0000000000
      7267        59  23SM      C4S           -30.8218909497        1.9086609103       19.6994495442  MEMB      59              0.0000000000
      7268        59  23SM      H4S           -30.3077211716        2.8651548715       19.5215144183  MEMB      59              0.0000000000
      7269        59  23SM      C5S           -31.0362972198        1.0393055726       18.6880774780  MEMB      59              0.0000000000
      7270        59  23SM      H5S           -31.4228421556        0.0326197428       18.9170094786  MEMB      59              0.0000000000
      7271        59  23SM      C6S           -30.6727157688        1.1983702411       17.2361840996  MEMB      59              0.0000000000
      7272        59  23SM      H6S           -31.4877220999        0.7757751130       16.6116130863  MEMB      59              0.0000000000
      7273        59  23SM      H6T           -29.7800897844        0.5786064942       16.9915700199  MEMB      59              0.0000000000
      7274        59  23SM      C7S           -30.3713321919        2.6180333030       16.7607689933  MEMB      59              0.0000000000
      7275        59  23SM      H7S           -29.5102223053        2.9976796754       17.3585287527  MEMB      59              0.0000000000
      7276        59  23SM      H7T           -31.2373237325        3.2940352123       16.9378455332  MEMB      59              0.0000000000
      7277        59  23SM      C8S           -29.9831192341        2.6398911115       15.2750572073  MEMB      59              0.0000000000
      7278        59  23SM      H8S           -29.2930750092        1.7926392185       15.0703902602  MEMB      59              0.0000000000
      7279        59  23SM      H8T           -29.4225024204        3.5574327910       15.0186453445  MEMB      59              0.0000000000
      7280        59  23SM      C9S           -31.1816552175        2.5624825736       14.3302623555  MEMB      59              0.0000000000
      7281        59  23SM      H9S           -31.8397289544        3.4521778569       14.4504137346  MEMB      59              0.0000000000
      7282        59  23SM      H9T           -31.7727754655        1.6538455591       14.5888372672  MEMB      59              0.0000000000
      7283        59  23SM      C10S          -30.7206341361        2.4491671103       12.8796620833  MEMB      59              0.0000000000
      7284        59  23SM      H10S          -29.9894438897        1.6104400718       12.8019737859  MEMB      59              0.0000000000
      7285        59  23SM      H10T          -30.1932245520        3.3802232741       12.5743625718  MEMB      59              0.0000000000
      7286        59  23SM      C11S          -31.8880568276        2.1758813559       11.9374167307  MEMB      59              0.0000000000
      7287        59  23SM      H11S          -32.6042270719        3.0275742195       11.9758713830  MEMB      59              0.0000000000
      7288        59  23SM      H11T          -32.4213101175        1.2573053144       12.2780528910  MEMB      59              0.0000000000
      7289        59  23SM      C12S          -31.3937575410        1.9768066195       10.5086905694  MEMB      59              0.0000000000
      7290        59  23SM      H12S          -30.6916572238        1.1116313194       10.4922992301  MEMB      59              0.0000000000
      7291        59  23SM      H12T          -30.8269114669        2.8797176647       10.1890927734  MEMB      59              0.0000000000
      7292        59  23SM      C13S          -32.5368881423        1.7321185148        9.5273487474  MEMB      59              0.0000000000
      7293        59  23SM      H13S          -33.2712907347        2.5669580016        9.5910700886  MEMB      59              0.0000000000
      7294        59  23SM      H13T          -33.0654427212        0.7927542013        9.8069221004  MEMB      59              0.0000000000
      7295        59  23SM      C14S          -32.0259705432        1.6329368419        8.0912653747  MEMB      59              0.0000000000
      7296        59  23SM      H14S          -31.2058572275        0.8962063530        8.0216260866  MEMB      59              0.0000000000
      7297        59  23SM      H14T          -31.5887460248        2.6077864584        7.7845530717  MEMB      59              0.0000000000
      7298        59  23SM      C15S          -33.1159473791        1.1891757534        7.1189834732  MEMB      59              0.0000000000
      7299        59  23SM      H15S          -33.9706978076        1.8908066448        7.1791588238  MEMB      59              0.0000000000
      7300        59  23SM      H15T          -33.5009236637        0.1968739059        7.4351001125  MEMB      59              0.0000000000
      7301        59  23SM      C16S          -32.5820000260        1.1332391663        5.6866996972  MEMB      59              0.0000000000
      7302        59  23SM      H16S          -31.7745950054        0.3804853189        5.6101438561  MEMB      59              0.0000000000
      7303        59  23SM      H16T          -32.1083117299        2.1105082076        5.4491512166  MEMB      59              0.0000000000
      7304        59  23SM      C17S          -33.6524471394        0.8112072382        4.6394670042  MEMB      59              0.0000000000
      7305        59  23SM      H17S          -34.4988334408        1.5274053164        4.7264863883  MEMB      59              0.0000000000
      7306        59  23SM      H17T          -34.0824409322       -0.1923853014        4.8293912988  MEMB      59              0.0000000000
      7307        59  23SM      C18S          -33.0800739916        0.8597888805        3.2257860210  MEMB      59              0.0000000000
      7308        59  23SM      H18S          -32.1992375228        0.1920420159        3.1336501772  MEMB      59              0.0000000000
      7309        59  23SM      H18T          -32.7410474194        1.8856000527        2.9862531361  MEMB      59              0.0000000000
      7310        59  23SM      H18U          -33.8400041739        0.5465890305        2.4823908743  MEMB      59              0.0000000000
      7311        59  23SM      C1F           -34.5596603969        3.3965889264       20.3560903641  MEMB      59              0.0000000000
      7312        59  23SM      OF            -34.9604361729        4.1168120491       21.2696006204  MEMB      59              0.0000000000
      7313        59  23SM      C2F           -35.3663582253        3.2225830223       19.1043106711  MEMB      59              0.0000000000
      7314        59  23SM      H2F           -36.1030227470        2.4121845351       19.2954519029  MEMB      59              0.0000000000
      7315        59  23SM      H2G           -34.7033379111        2.8980162225       18.2727285196  MEMB      59              0.0000000000
      7316        59  23SM      C3F           -36.1206048830        4.5047469978       18.6840460896  MEMB      59              0.0000000000
      7317        59  23SM      H3F           -35.4197210775        5.2265422079       18.2110079572  MEMB      59              0.0000000000
      7318        59  23SM      H3G           -36.5331599829        5.0149908559       19.5831320102  MEMB      59              0.0000000000
      7319        59  23SM      C4F           -37.3029506195        4.1987631468       17.7533866653  MEMB      59              0.0000000000
      7320        59  23SM      H4F           -37.9679072523        5.0886788083       17.7071627724  MEMB      59              0.0000000000
      7321        59  23SM      H4G           -37.8811375466        3.3619483828       18.2016731971  MEMB      59              0.0000000000
      7322        59  23SM      C5F           -36.9679758403        3.7422731251       16.3286862377  MEMB      59              0.0000000000
      7323        59  23SM      H5F           -37.9348929453        3.5825581337       15.7918374181  MEMB      59              0.0000000000
      7324        59  23SM      H5G           -36.4538722855        2.7570936513       16.3751953718  MEMB      59              0.0000000000
      7325        59  23SM      C6F           -36.0999584798        4.7145701455       15.5251479290  MEMB      59              0.0000000000
      7326        59  23SM      H6F           -35.9478729354        4.2762455148       14.5136978241  MEMB      59              0.0000000000
      7327        59  23SM      H6G           -35.1030660825        4.8036329454       16.0120682247  MEMB      59              0.0000000000
      7328        59  23SM      C7F           -36.7007015571        6.1203328029       15.3786942172  MEMB      59              0.0000000000
      7329        59  23SM      H7F           -36.9729277604        6.5216062975       16.3816149389  MEMB      59              0.0000000000
      7330        59  23SM      H7G           -37.6414621792        6.0548549070       14.7879048896  MEMB      59              0.0000000000
      7331        59  23SM      C8F           -35.6992302845        7.0946973098       14.7416176972  MEMB      59              0.0000000000
      7332        59  23SM      H8F           -34.8035648316        7.1810764083       15.3914951558  MEMB      59              0.0000000000
      7333        59  23SM      H8G           -36.1413382466        8.0987689592       14.6689562137  MEMB      59              0.0000000000
      7334        59  23SM      C9F           -35.2867518398        6.7603576094       13.3077396400  MEMB      59              0.0000000000
      7335        59  23SM      H9F           -34.8732217314        5.7317378625       13.2515973328  MEMB      59              0.0000000000
      7336        59  23SM      H9G           -34.4837715996        7.4696435734       13.0041683135  MEMB      59              0.0000000000
      7337        59  23SM      C10F          -36.4761635761        6.9213990785       12.3561758692  MEMB      59              0.0000000000
      7338        59  23SM      H10F          -36.8815528648        7.9545650988       12.4264887240  MEMB      59              0.0000000000
      7339        59  23SM      H10G          -37.2806579822        6.2190900508       12.6660599227  MEMB      59              0.0000000000
      7340        59  23SM      C11F          -36.1078847916        6.6356195090       10.9085223242  MEMB      59              0.0000000000
      7341        59  23SM      H11F          -37.0405358461        6.5355971364       10.3069885946  MEMB      59              0.0000000000
      7342        59  23SM      H11G          -35.5689478265        5.6633396712       10.8737711795  MEMB      59              0.0000000000
      7343        59  23SM      C12F          -35.2387533741        7.7202990411       10.2705175668  MEMB      59              0.0000000000
      7344        59  23SM      H12F          -34.2314982311        7.7180776223       10.7447573044  MEMB      59              0.0000000000
      7345        59  23SM      H12G          -35.6988154081        8.7176987351       10.4401533695  MEMB      59              0.0000000000
      7346        59  23SM      C13F          -35.0872874292        7.4790371650        8.7721133490  MEMB      59              0.0000000000
      7347        59  23SM      H13F          -34.4247564531        8.2497872621        8.3207312496  MEMB      59              0.0000000000
      7348        59  23SM      H13G          -36.0874467877        7.5596244287        8.2840820968  MEMB      59              0.0000000000
      7349        59  23SM      C14F          -34.5346215393        6.0852388423        8.4821917139  MEMB      59              0.0000000000
      7350        59  23SM      H14F          -35.2745915834        5.3114015253        8.7942592811  MEMB      59              0.0000000000
      7351        59  23SM      H14G          -33.5934689708        5.8971119928        9.0430097947  MEMB      59              0.0000000000
      7352        59  23SM      C15F          -34.2965950214        5.9114051293        7.0001325904  MEMB      59              0.0000000000
      7353        59  23SM      H15F          -33.4397813033        6.5330553370        6.6611676220  MEMB      59              0.0000000000
      7354        59  23SM      H15G          -35.2027450158        6.2646237260        6.4578794470  MEMB      59              0.0000000000
      7355        59  23SM      C16F          -34.0480683256        4.4574115365        6.6448713442  MEMB      59              0.0000000000
      7356        59  23SM      H16F          -34.8584950562        3.8055310283        7.0396965686  MEMB      59              0.0000000000
      7357        59  23SM      H16G          -33.0925201092        4.1241587288        7.1051620170  MEMB      59              0.0000000000
      7358        59  23SM      C17F          -33.9793605170        4.3553305465        5.1352407668  MEMB      59              0.0000000000
      7359        59  23SM      H17F          -33.4620987182        3.4340305555        4.8259465012  MEMB      59              0.0000000000
      7360        59  23SM      H17G          -33.3693315672        5.2149915648        4.7786897972  MEMB      59              0.0000000000
      7361        59  23SM      C18F          -35.3541936922        4.3652262580        4.4673182576  MEMB      59              0.0000000000
      7362        59  23SM      H18F          -35.8777698309        5.3220474056        4.6789914739  MEMB      59              0.0000000000
      7363        59  23SM      H18G          -35.9778265739        3.5410374203        4.8845021079  MEMB      59              0.0000000000
      7364        59  23SM      C19F          -35.2581202642        4.1765866688        2.9610034388  MEMB      59              0.0000000000
      7365        59  23SM      H19F          -36.0828982299        4.7486513252        2.4776947807  MEMB      59              0.0000000000
      7366        59  23SM      H19G          -35.4426441975        3.1012836891        2.7545646157  MEMB      59              0.0000000000
      7367        59  23SM      C20F          -33.8907541283        4.5974974421        2.3841287433  MEMB      59              0.0000000000
      7368        59  23SM      H20F          -33.0756126467        3.9672932330        2.7957436974  MEMB      59              0.0000000000
      7369        59  23SM      H20G          -33.6846346196        5.6525632502        2.6719655835  MEMB      59              0.0000000000
      7370        59  23SM      C21F          -33.8681093384        4.4714176656        0.8701797954  MEMB      59              0.0000000000
      7371        59  23SM      H21F          -33.7023900297        5.4530553317        0.3933761466  MEMB      59              0.0000000000
      7372        59  23SM      H21G          -34.9267116341        4.2072496861        0.6535874718  MEMB      59              0.0000000000
      7373        59  23SM      C22F          -32.9260963755        3.3856616063        0.2890241647  MEMB      59              0.0000000000
      7374        59  23SM      H22F          -33.5438223370        2.6437816230       -0.2252727680  MEMB      59              0.0000000000
      7375        59  23SM      H22G          -32.3700240001        2.8408349611        1.0745921580  MEMB      59              0.0000000000
      7376        59  23SM      C23F          -32.0290497522        3.7620479200       -0.8750178446  MEMB      59              0.0000000000
      7377        59  23SM      H23F          -31.1076004344        4.2318275758       -0.5067965595  MEMB      59              0.0000000000
      7378        59  23SM      H23G          -32.5736104157        4.4668540885       -1.5380179548  MEMB      59              0.0000000000
      7379        59  23SM      H23H          -31.7487333999        2.8682732763       -1.4757425336  MEMB      59              0.0000000000
      7380        60  23SM      N              29.3084983303       16.0996919922       27.0856529646  MEMB      60              0.0000000000
      7381        60  23SM      C15            28.6702570479       15.6853113688       28.3636271100  MEMB      60              0.0000000000
      7382        60  23SM      H15A           27.6649203368       15.3175109691       28.1998804105  MEMB      60              0.0000000000
      7383        60  23SM      H15B           28.5911774766       16.5270733748       29.0468711937  MEMB      60              0.0000000000
      7384        60  23SM      H15C           29.2419774523       14.9182768517       28.8664301737  MEMB      60              0.0000000000
      7385        60  23SM      C14            29.5312999408       14.9433062441       26.1605306421  MEMB      60              0.0000000000
      7386        60  23SM      H14A           29.7966718957       15.3128808385       25.1672322041  MEMB      60              0.0000000000
      7387        60  23SM      H14B           28.6162763663       14.3922783812       26.0062140845  MEMB      60              0.0000000000
      7388        60  23SM      H14C           30.3587573995       14.3174429354       26.4626427624  MEMB      60              0.0000000000
      7389        60  23SM      C13            28.3667413470       16.9884972222       26.3424704563  MEMB      60              0.0000000000
      7390        60  23SM      H13A           28.2062868837       17.9465493292       26.8312269169  MEMB      60              0.0000000000
      7391        60  23SM      H13B           27.4116141204       16.4937620178       26.2174143371  MEMB      60              0.0000000000
      7392        60  23SM      H13C           28.7627829697       17.1880415154       25.3507726313  MEMB      60              0.0000000000
      7393        60  23SM      C12            30.6257638681       16.7627922092       27.4020058142  MEMB      60              0.0000000000
      7394        60  23SM      H12A           31.2441729801       16.0308898877       27.9204290845  MEMB      60              0.0000000000
      7395        60  23SM      H12B           30.4533301334       17.6032719690       28.0624976745  MEMB      60              0.0000000000
      7396        60  23SM      C11            31.4951193323       17.1992621297       26.2300558017  MEMB      60              0.0000000000
      7397        60  23SM      H11A           32.2035300166       17.9753184664       26.6214558649  MEMB      60              0.0000000000
      7398        60  23SM      H11B           30.8887917999       17.6643667382       25.4181060212  MEMB      60              0.0000000000
      7399        60  23SM      P              33.3686412952       16.3650608258       24.7550910407  MEMB      60              0.0000000000
      7400        60  23SM      O13            34.2681698860       17.3523216537       25.4045778841  MEMB      60              0.0000000000
      7401        60  23SM      O14            33.9726021215       15.1121064549       24.2575198057  MEMB      60              0.0000000000
      7402        60  23SM      O11            32.5351431235       17.0907513554       23.6582184691  MEMB      60              0.0000000000
      7403        60  23SM      O12            32.1943270455       16.0372062158       25.7671497556  MEMB      60              0.0000000000
      7404        60  23SM      C1S            31.5715323656       16.4308597220       22.8541473704  MEMB      60              0.0000000000
      7405        60  23SM      H1S            30.6030503180       16.9319880498       23.0271980399  MEMB      60              0.0000000000
      7406        60  23SM      H1T            31.4071864129       15.3640423636       23.1397878682  MEMB      60              0.0000000000
      7407        60  23SM      NF             32.7941508613       15.4149048497       20.9982614212  MEMB      60              0.0000000000
      7408        60  23SM      HNF            33.7695894170       15.4362729977       21.1807597918  MEMB      60              0.0000000000
      7409        60  23SM      C2S            32.0046803837       16.5788850695       21.3621193256  MEMB      60              0.0000000000
      7410        60  23SM      H2S            31.1022279045       16.6150206016       20.7093584276  MEMB      60              0.0000000000
      7411        60  23SM      C3S            32.7627524968       17.9283019872       21.2267435969  MEMB      60              0.0000000000
      7412        60  23SM      H3S            33.7329126366       17.8649420659       21.7584750880  MEMB      60              0.0000000000
      7413        60  23SM      O3             32.0332870643       18.9978374909       21.8278124312  MEMB      60              0.0000000000
      7414        60  23SM      HO3            31.6246839834       18.5558001386       22.5827315709  MEMB      60              0.0000000000
      7415        60  23SM      C4S            32.9985695998       18.3488814236       19.8064343338  MEMB      60              0.0000000000
      7416        60  23SM      H4S            32.4847804765       19.2495046764       19.4504037082  MEMB      60              0.0000000000
      7417        60  23SM      C5S            33.9484717994       17.7818399747       19.0628433380  MEMB      60              0.0000000000
      7418        60  23SM      H5S            34.5572611094       16.9973617485       19.5292286291  MEMB      60              0.0000000000
      7419        60  23SM      C6S            34.3890929907       18.0943114992       17.6661466501  MEMB      60              0.0000000000
      7420        60  23SM      H6S            35.2535036580       17.4388961182       17.4877780552  MEMB      60              0.0000000000
      7421        60  23SM      H6T            34.9084660424       19.0778925904       17.6188897445  MEMB      60              0.0000000000
      7422        60  23SM      C7S            33.2837128976       18.1390319992       16.6165384829  MEMB      60              0.0000000000
      7423        60  23SM      H7S            32.6999495386       18.9708504208       17.0024720847  MEMB      60              0.0000000000
      7424        60  23SM      H7T            32.6305077140       17.2474117760       16.5783622640  MEMB      60              0.0000000000
      7425        60  23SM      C8S            33.6848988375       18.5969691290       15.2209769326  MEMB      60              0.0000000000
      7426        60  23SM      H8S            34.7481541558       18.4745134978       15.0018203040  MEMB      60              0.0000000000
      7427        60  23SM      H8T            33.6034412422       19.7079153635       15.2784355062  MEMB      60              0.0000000000
      7428        60  23SM      C9S            32.7148016561       18.2854140752       14.0494591044  MEMB      60              0.0000000000
      7429        60  23SM      H9S            33.1612938531       19.1205990787       13.4862608130  MEMB      60              0.0000000000
      7430        60  23SM      H9T            31.6953003225       18.6313049479       14.2643979095  MEMB      60              0.0000000000
      7431        60  23SM      C10S           32.7016016297       17.1891505787       12.9301271489  MEMB      60              0.0000000000
      7432        60  23SM      H10S           31.7811107109       16.5617807112       13.0256775541  MEMB      60              0.0000000000
      7433        60  23SM      H10T           33.5040315443       16.4504094981       12.7822231344  MEMB      60              0.0000000000
      7434        60  23SM      C11S           32.6459509685       17.9479921048       11.6001794002  MEMB      60              0.0000000000
      7435        60  23SM      H11S           32.9814271720       19.0058491500       11.6853425760  MEMB      60              0.0000000000
      7436        60  23SM      H11T           31.5717607865       17.9919027934       11.3281334820  MEMB      60              0.0000000000
      7437        60  23SM      C12S           33.5653211416       17.5683292495       10.4418816504  MEMB      60              0.0000000000
      7438        60  23SM      H12S           33.5506696050       16.4774578847       10.2787561132  MEMB      60              0.0000000000
      7439        60  23SM      H12T           34.6241987801       17.8692487672       10.6305155760  MEMB      60              0.0000000000
      7440        60  23SM      C13S           32.9862780040       18.4277412855        9.3123605544  MEMB      60              0.0000000000
      7441        60  23SM      H13S           33.0617475850       19.4945237286        9.6419853664  MEMB      60              0.0000000000
      7442        60  23SM      H13T           31.9199611390       18.1398179156        9.1953793509  MEMB      60              0.0000000000
      7443        60  23SM      C14S           33.6633079375       18.4093858228        7.9773260930  MEMB      60              0.0000000000
      7444        60  23SM      H14S           33.7279489577       17.3728820607        7.6061967946  MEMB      60              0.0000000000
      7445        60  23SM      H14T           34.6754274476       18.8360453984        8.1777585896  MEMB      60              0.0000000000
      7446        60  23SM      C15S           32.9885442418       19.2165677668        6.8606910674  MEMB      60              0.0000000000
      7447        60  23SM      H15S           32.4158863224       20.0626132126        7.2856609269  MEMB      60              0.0000000000
      7448        60  23SM      H15T           32.2861074057       18.5383339693        6.3206917424  MEMB      60              0.0000000000
      7449        60  23SM      C16S           34.0221056741       19.7493330430        5.8716322963  MEMB      60              0.0000000000
      7450        60  23SM      H16S           34.3069849004       18.8834664054        5.2586288846  MEMB      60              0.0000000000
      7451        60  23SM      H16T           34.9215989304       20.0943385511        6.4286148373  MEMB      60              0.0000000000
      7452        60  23SM      C17S           33.5919407035       20.8727830474        4.9346682632  MEMB      60              0.0000000000
      7453        60  23SM      H17S           33.0282065716       21.6452181393        5.4962690984  MEMB      60              0.0000000000
      7454        60  23SM      H17T           32.9116015648       20.4701192863        4.1529985880  MEMB      60              0.0000000000
      7455        60  23SM      C18S           34.8014295068       21.5761190154        4.3152504552  MEMB      60              0.0000000000
      7456        60  23SM      H18S           35.4578175702       21.9513436452        5.1288231636  MEMB      60              0.0000000000
      7457        60  23SM      H18T           34.4656719023       22.4498781465        3.7230639688  MEMB      60              0.0000000000
      7458        60  23SM      H18U           35.4008605394       20.9139379668        3.6575428286  MEMB      60              0.0000000000
      7459        60  23SM      C1F            32.1392701402       14.2669415486       20.9159384815  MEMB      60              0.0000000000
      7460        60  23SM      OF             30.9239571296       14.2262496925       21.1202247376  MEMB      60              0.0000000000
      7461        60  23SM      C2F            32.8883989689       13.0343294802       20.5279578228  MEMB      60              0.0000000000
      7462        60  23SM      H2F            33.1465434112       12.4644126267       21.4446952710  MEMB      60              0.0000000000
      7463        60  23SM      H2G            33.8080305659       13.3166577734       19.9761981133  MEMB      60              0.0000000000
      7464        60  23SM      C3F            31.8991478749       12.2482252081       19.6487975541  MEMB      60              0.0000000000
      7465        60  23SM      H3F            31.4854779190       12.9756633881       18.9090323478  MEMB      60              0.0000000000
      7466        60  23SM      H3G            31.0779076743       11.8855325997       20.3131153094  MEMB      60              0.0000000000
      7467        60  23SM      C4F            32.3496288451       11.0805852111       18.7775996129  MEMB      60              0.0000000000
      7468        60  23SM      H4F            31.3992735480       10.5925715447       18.4423084434  MEMB      60              0.0000000000
      7469        60  23SM      H4G            32.8821660484       10.3022038407       19.3285994974  MEMB      60              0.0000000000
      7470        60  23SM      C5F            32.9891392649       11.5316997089       17.4684688063  MEMB      60              0.0000000000
      7471        60  23SM      H5F            32.3439137786       12.3208877443       17.0156155698  MEMB      60              0.0000000000
      7472        60  23SM      H5G            32.9662299754       10.6606116871       16.7747777942  MEMB      60              0.0000000000
      7473        60  23SM      C6F            34.4007952912       12.1150390756       17.5120519537  MEMB      60              0.0000000000
      7474        60  23SM      H6F            34.9132207330       11.9238762109       18.4667687307  MEMB      60              0.0000000000
      7475        60  23SM      H6G            34.3035984212       13.2239181196       17.4590921231  MEMB      60              0.0000000000
      7476        60  23SM      C7F            35.1895798468       11.6500417840       16.2770593636  MEMB      60              0.0000000000
      7477        60  23SM      H7F            35.2014587205       10.5387856989       16.2541146566  MEMB      60              0.0000000000
      7478        60  23SM      H7G            36.2363729872       12.0215999736       16.3212593383  MEMB      60              0.0000000000
      7479        60  23SM      C8F            34.4904387562       12.2150851182       15.0290757268  MEMB      60              0.0000000000
      7480        60  23SM      H8F            34.3400036794       13.2441180175       15.2493862163  MEMB      60              0.0000000000
      7481        60  23SM      H8G            33.4566802676       11.8243991952       14.9531797489  MEMB      60              0.0000000000
      7482        60  23SM      C9F            35.1191117328       12.2302089911       13.6235981800  MEMB      60              0.0000000000
      7483        60  23SM      H9F            34.3686424309       12.7428738358       12.9845936884  MEMB      60              0.0000000000
      7484        60  23SM      H9G            35.2428592336       11.1898370482       13.2913242110  MEMB      60              0.0000000000
      7485        60  23SM      C10F           36.4590191676       12.9055513981       13.3639482123  MEMB      60              0.0000000000
      7486        60  23SM      H10F           37.2056302167       12.0849498932       13.3737028348  MEMB      60              0.0000000000
      7487        60  23SM      H10G           36.6967441118       13.5405039095       14.2300757348  MEMB      60              0.0000000000
      7488        60  23SM      C11F           36.6604969119       13.8412824825       12.1369156371  MEMB      60              0.0000000000
      7489        60  23SM      H11F           37.6911104669       13.6529141005       11.7938032415  MEMB      60              0.0000000000
      7490        60  23SM      H11G           36.5337495614       14.9069980574       12.3917996026  MEMB      60              0.0000000000
      7491        60  23SM      C12F           35.9253903165       13.7362226231       10.8205921827  MEMB      60              0.0000000000
      7492        60  23SM      H12F           34.8310285372       13.8473607847       10.8604917470  MEMB      60              0.0000000000
      7493        60  23SM      H12G           36.1764263047       12.7549608441       10.4097749369  MEMB      60              0.0000000000
      7494        60  23SM      C13F           36.4816405227       14.7716345916        9.8469186178  MEMB      60              0.0000000000
      7495        60  23SM      H13F           37.6073030397       14.6912741797        9.9308553052  MEMB      60              0.0000000000
      7496        60  23SM      H13G           36.0824701496       15.7706365463       10.1957752407  MEMB      60              0.0000000000
      7497        60  23SM      C14F           35.9835103720       14.4123202567        8.4284355042  MEMB      60              0.0000000000
      7498        60  23SM      H14F           36.1295229428       13.3173667043        8.3985519273  MEMB      60              0.0000000000
      7499        60  23SM      H14G           36.6400868190       14.8970783615        7.6581276950  MEMB      60              0.0000000000
      7500        60  23SM      C15F           34.4822018503       14.7818970070        8.2354866982  MEMB      60              0.0000000000
      7501        60  23SM      H15F           34.6077613496       15.8734896079        8.2386495081  MEMB      60              0.0000000000
      7502        60  23SM      H15G           33.8512219389       14.5605779578        9.1226281487  MEMB      60              0.0000000000
      7503        60  23SM      C16F           33.6663979721       14.3657601540        6.9552780242  MEMB      60              0.0000000000
      7504        60  23SM      H16F           34.3559395827       13.9474749685        6.1982208131  MEMB      60              0.0000000000
      7505        60  23SM      H16G           33.2375138467       15.2971798900        6.5347722290  MEMB      60              0.0000000000
      7506        60  23SM      C17F           32.4837224536       13.3758635730        7.2181722306  MEMB      60              0.0000000000
      7507        60  23SM      H17F           32.1361576209       13.5219191698        8.2612379409  MEMB      60              0.0000000000
      7508        60  23SM      H17G           32.8963339965       12.3572162172        7.1063788290  MEMB      60              0.0000000000
      7509        60  23SM      C18F           31.2124709699       13.1903705917        6.3516666178  MEMB      60              0.0000000000
      7510        60  23SM      H18F           30.4759696277       12.6188724855        6.9693816716  MEMB      60              0.0000000000
      7511        60  23SM      H18G           31.4251730753       12.4928026936        5.5106915546  MEMB      60              0.0000000000
      7512        60  23SM      C19F           30.5339306776       14.4364964030        5.8041361547  MEMB      60              0.0000000000
      7513        60  23SM      H19F           31.2237529519       15.3010124442        5.8894511813  MEMB      60              0.0000000000
      7514        60  23SM      H19G           29.6175590996       14.6734808511        6.3941260084  MEMB      60              0.0000000000
      7515        60  23SM      C20F           30.1766742682       14.2325126474        4.3290071182  MEMB      60              0.0000000000
      7516        60  23SM      H20F           29.5476106971       15.0810788258        3.9890054864  MEMB      60              0.0000000000
      7517        60  23SM      H20G           29.5478888365       13.3225250154        4.2112949703  MEMB      60              0.0000000000
      7518        60  23SM      C21F           31.4271269394       14.0970981289        3.4394624695  MEMB      60              0.0000000000
      7519        60  23SM      H21F           32.0689175263       13.2497870920        3.7550470363  MEMB      60              0.0000000000
      7520        60  23SM      H21G           32.0520058659       15.0154072924        3.5351829024  MEMB      60              0.0000000000
      7521        60  23SM      C22F           31.0176181426       13.8769963175        1.9875167836  MEMB      60              0.0000000000
      7522        60  23SM      H22F           30.6652065040       14.8651733098        1.6528712884  MEMB      60              0.0000000000
      7523        60  23SM      H22G           30.1318441609       13.2093095976        1.9348350808  MEMB      60              0.0000000000
      7524        60  23SM      C23F           32.0946005887       13.3147914963        1.0604754713  MEMB      60              0.0000000000
      7525        60  23SM      H23F           31.6891423255       13.1150194006        0.0403627171  MEMB      60              0.0000000000
      7526        60  23SM      H23G           32.4655547874       12.3490935553        1.4643870424  MEMB      60              0.0000000000
      7527        60  23SM      H23H           32.9414151551       14.0274991353        0.9641348874  MEMB      60              0.0000000000
      7528        61  DOPE      N             -33.6272411408       -1.3162539875       21.4620934635  MEMB      61              0.0000000000
      7529        61  DOPE      HN1           -33.4338622079       -0.8774695260       20.5343114622  MEMB      61              0.0000000000
      7530        61  DOPE      HN2           -34.4659725123       -0.8669817068       21.9196372472  MEMB      61              0.0000000000
      7531        61  DOPE      HN3           -32.7679775181       -1.2530768420       22.0443001305  MEMB      61              0.0000000000
      7532        61  DOPE      C12           -33.8187068196       -2.7661485693       21.1604827044  MEMB      61              0.0000000000
      7533        61  DOPE      H12A          -34.7367893434       -2.8891371088       20.5474362431  MEMB      61              0.0000000000
      7534        61  DOPE      H12B          -33.9268729876       -3.3223771911       22.1133993253  MEMB      61              0.0000000000
      7535        61  DOPE      C11           -32.5879068945       -3.2160374882       20.3744853786  MEMB      61              0.0000000000
      7536        61  DOPE      H11A          -32.6430620184       -4.3337325452       20.3074963686  MEMB      61              0.0000000000
      7537        61  DOPE      H11B          -31.6467657197       -2.9889283679       20.9091602115  MEMB      61              0.0000000000
      7538        61  DOPE      P             -32.4812256762       -3.4652341652       17.8295552607  MEMB      61              0.0000000000
      7539        61  DOPE      O13           -31.3915101272       -4.4489849010       18.0004769010  MEMB      61              0.0000000000
      7540        61  DOPE      O14           -32.5986800251       -2.6727695995       16.5972574371  MEMB      61              0.0000000000
      7541        61  DOPE      O11           -33.8869613986       -4.1672611226       18.1122401132  MEMB      61              0.0000000000
      7542        61  DOPE      O12           -32.5287334009       -2.5298843627       19.1132429093  MEMB      61              0.0000000000
      7543        61  DOPE      C1            -34.2248155603       -5.4681403645       17.6584286917  MEMB      61              0.0000000000
      7544        61  DOPE      HA            -35.0417399140       -5.8717116912       18.2908266360  MEMB      61              0.0000000000
      7545        61  DOPE      HB            -33.3657609022       -6.1816132635       17.7395308913  MEMB      61              0.0000000000
      7546        61  DOPE      C2            -34.6775171196       -5.4652182321       16.1904273152  MEMB      61              0.0000000000
      7547        61  DOPE      HS            -35.2717844567       -6.3897266995       16.0519485773  MEMB      61              0.0000000000
      7548        61  DOPE      O21           -33.4729320771       -5.5554345427       15.4782066591  MEMB      61              0.0000000000
      7549        61  DOPE      C21           -33.6069041454       -5.6839757990       14.2108891660  MEMB      61              0.0000000000
      7550        61  DOPE      O22           -34.4242956481       -6.3672064747       13.6136536199  MEMB      61              0.0000000000
      7551        61  DOPE      C22           -32.4907869964       -4.9624784401       13.5841086484  MEMB      61              0.0000000000
      7552        61  DOPE      H2R           -32.0457640738       -4.2183509845       14.2832046454  MEMB      61              0.0000000000
      7553        61  DOPE      H2S           -32.8722348616       -4.4336817477       12.6909862453  MEMB      61              0.0000000000
      7554        61  DOPE      C3            -35.4944699334       -4.2062807697       15.7198740482  MEMB      61              0.0000000000
      7555        61  DOPE      HX            -34.8474072634       -3.3028341666       15.8154971831  MEMB      61              0.0000000000
      7556        61  DOPE      HY            -36.2748785248       -4.0698896362       16.4617364693  MEMB      61              0.0000000000
      7557        61  DOPE      O31           -36.0730566439       -4.2534184027       14.3830734186  MEMB      61              0.0000000000
      7558        61  DOPE      C31           -36.7898375884       -5.3365764804       14.0664084450  MEMB      61              0.0000000000
      7559        61  DOPE      O32           -37.0816914041       -6.2398963644       14.8244894365  MEMB      61              0.0000000000
      7560        61  DOPE      C32           -37.1629141654       -5.4598119101       12.5513908990  MEMB      61              0.0000000000
      7561        61  DOPE      H2X           -36.8190955339       -6.4831801191       12.2930204153  MEMB      61              0.0000000000
      7562        61  DOPE      H2Y           -38.2701424507       -5.4561150132       12.5303096767  MEMB      61              0.0000000000
      7563        61  DOPE      C23           -31.5608767268       -6.1100496708       13.2361963238  MEMB      61              0.0000000000
      7564        61  DOPE      H3R           -31.0998147734       -6.6149734265       14.1116067381  MEMB      61              0.0000000000
      7565        61  DOPE      H3S           -30.8004528749       -5.5688201659       12.7097650373  MEMB      61              0.0000000000
      7566        61  DOPE      C24           -32.1481717425       -7.0546210219       12.1926842940  MEMB      61              0.0000000000
      7567        61  DOPE      H4R           -32.9403021796       -6.4360552311       11.7109159482  MEMB      61              0.0000000000
      7568        61  DOPE      H4S           -32.6724527234       -7.9262880043       12.6466521760  MEMB      61              0.0000000000
      7569        61  DOPE      C25           -31.1402631121       -7.4709896875       11.1274207817  MEMB      61              0.0000000000
      7570        61  DOPE      H5R           -30.9278198730       -8.5537235835       11.2172320521  MEMB      61              0.0000000000
      7571        61  DOPE      H5S           -30.1771560363       -6.9389446487       11.2641296163  MEMB      61              0.0000000000
      7572        61  DOPE      C26           -31.5959123868       -7.1155191311        9.7132779769  MEMB      61              0.0000000000
      7573        61  DOPE      H6R           -31.0168459874       -7.7404571547        9.0000472939  MEMB      61              0.0000000000
      7574        61  DOPE      H6S           -31.3121077094       -6.0710501214        9.4980780937  MEMB      61              0.0000000000
      7575        61  DOPE      C27           -33.0957332236       -7.3050953958        9.4508373891  MEMB      61              0.0000000000
      7576        61  DOPE      H7R           -33.7048115753       -6.4419533802        9.7968680238  MEMB      61              0.0000000000
      7577        61  DOPE      H7S           -33.4334747049       -8.2018246528       10.0304056181  MEMB      61              0.0000000000
      7578        61  DOPE      C28           -33.3500481905       -7.6185220097        7.9751370698  MEMB      61              0.0000000000
      7579        61  DOPE      H8R           -34.4107747307       -7.9495319418        7.8860739880  MEMB      61              0.0000000000
      7580        61  DOPE      H8S           -32.6924337387       -8.4951012454        7.8361467495  MEMB      61              0.0000000000
      7581        61  DOPE      C29           -33.0823751631       -6.5972519891        6.8981353786  MEMB      61              0.0000000000
      7582        61  DOPE      H9R           -33.8617639025       -5.8217186482        6.8442624257  MEMB      61              0.0000000000
      7583        61  DOPE      C210          -32.0446303543       -6.4619110731        6.0439182221  MEMB      61              0.0000000000
      7584        61  DOPE      H10R          -32.1423515044       -5.7008064998        5.2665143091  MEMB      61              0.0000000000
      7585        61  DOPE      C211          -30.7764165347       -7.2268746279        5.8081946522  MEMB      61              0.0000000000
      7586        61  DOPE      H11R          -30.5097252866       -7.9159702740        6.6385044081  MEMB      61              0.0000000000
      7587        61  DOPE      H11S          -29.9286509041       -6.5071775287        5.7212483453  MEMB      61              0.0000000000
      7588        61  DOPE      C212          -30.8424896416       -7.9413662373        4.4427363865  MEMB      61              0.0000000000
      7589        61  DOPE      H12R          -31.5790359309       -8.7563442785        4.3729007392  MEMB      61              0.0000000000
      7590        61  DOPE      H12S          -29.8563171289       -8.4298914365        4.3607962295  MEMB      61              0.0000000000
      7591        61  DOPE      C213          -31.0854643555       -7.0283552672        3.2376989649  MEMB      61              0.0000000000
      7592        61  DOPE      H13R          -30.6394156110       -7.4892519591        2.3448343212  MEMB      61              0.0000000000
      7593        61  DOPE      H13S          -30.5979712830       -6.0486717203        3.4184689129  MEMB      61              0.0000000000
      7594        61  DOPE      C214          -32.5232871997       -6.8815836417        2.7356058838  MEMB      61              0.0000000000
      7595        61  DOPE      H14R          -32.5337923986       -5.9315859087        2.1585973539  MEMB      61              0.0000000000
      7596        61  DOPE      H14S          -33.2580991095       -6.7957935823        3.5601793707  MEMB      61              0.0000000000
      7597        61  DOPE      C215          -32.9179766861       -7.9928270493        1.7444557517  MEMB      61              0.0000000000
      7598        61  DOPE      H15R          -33.0550352058       -8.9416233211        2.3112641228  MEMB      61              0.0000000000
      7599        61  DOPE      H15S          -32.1048602777       -8.1701249448        1.0063677765  MEMB      61              0.0000000000
      7600        61  DOPE      C216          -34.2066333304       -7.6311574205        0.9947928419  MEMB      61              0.0000000000
      7601        61  DOPE      H16R          -34.9177804109       -7.2554876902        1.7616645863  MEMB      61              0.0000000000
      7602        61  DOPE      H16S          -34.6808949819       -8.5357965214        0.5733130235  MEMB      61              0.0000000000
      7603        61  DOPE      C217          -34.0459196009       -6.5569950901       -0.1048115929  MEMB      61              0.0000000000
      7604        61  DOPE      H17R          -33.5834135374       -5.6570059670        0.3551558008  MEMB      61              0.0000000000
      7605        61  DOPE      H17S          -35.0608131071       -6.2523009682       -0.4480946928  MEMB      61              0.0000000000
      7606        61  DOPE      C218          -33.2326826745       -6.9282643139       -1.3525111628  MEMB      61              0.0000000000
      7607        61  DOPE      H18R          -33.0120141835       -6.0108744478       -1.9409114270  MEMB      61              0.0000000000
      7608        61  DOPE      H18S          -33.8007429071       -7.6054952984       -2.0206886833  MEMB      61              0.0000000000
      7609        61  DOPE      H18T          -32.2679488410       -7.4063115733       -1.0843724866  MEMB      61              0.0000000000
      7610        61  DOPE      C33           -36.6720440317       -4.4955075251       11.4195263387  MEMB      61              0.0000000000
      7611        61  DOPE      H3X           -37.2040645896       -4.8070546057       10.4853831722  MEMB      61              0.0000000000
      7612        61  DOPE      H3Y           -35.6020044287       -4.6498684476       11.2017392859  MEMB      61              0.0000000000
      7613        61  DOPE      C34           -37.1275319059       -3.0644075862       11.7441411465  MEMB      61              0.0000000000
      7614        61  DOPE      H4X           -38.2248274093       -3.1445170140       11.5742656873  MEMB      61              0.0000000000
      7615        61  DOPE      H4Y           -36.9371842117       -2.8575948645       12.8145209099  MEMB      61              0.0000000000
      7616        61  DOPE      C35           -36.6828439632       -1.7926072618       10.9906228016  MEMB      61              0.0000000000
      7617        61  DOPE      H5X           -37.3770409910       -0.9928747017       11.3492375962  MEMB      61              0.0000000000
      7618        61  DOPE      H5Y           -36.8785890561       -1.9243889348        9.9065432909  MEMB      61              0.0000000000
      7619        61  DOPE      C36           -35.2300979028       -1.3018658123       11.2335845014  MEMB      61              0.0000000000
      7620        61  DOPE      H6X           -35.0800649834       -0.9831069274       12.2881040240  MEMB      61              0.0000000000
      7621        61  DOPE      H6Y           -35.0730395740       -0.4133193072       10.5839769709  MEMB      61              0.0000000000
      7622        61  DOPE      C37           -34.2823296238       -2.4504640684       10.8843951842  MEMB      61              0.0000000000
      7623        61  DOPE      H7X           -34.4180710007       -3.1859715673       11.7110219931  MEMB      61              0.0000000000
      7624        61  DOPE      H7Y           -34.7349905335       -2.8430326965        9.9363555491  MEMB      61              0.0000000000
      7625        61  DOPE      C38           -32.7511285396       -2.3165122865       10.7304596571  MEMB      61              0.0000000000
      7626        61  DOPE      H8X           -32.2561428601       -2.3002959094       11.7282558187  MEMB      61              0.0000000000
      7627        61  DOPE      H8Y           -32.4251435973       -1.4187196637       10.1710949029  MEMB      61              0.0000000000
      7628        61  DOPE      C39           -32.4693830954       -3.6097213631        9.9977419816  MEMB      61              0.0000000000
      7629        61  DOPE      H9X           -32.3886074532       -4.5041202792       10.6381162973  MEMB      61              0.0000000000
      7630        61  DOPE      C310          -32.2847253422       -3.7482757490        8.6770408034  MEMB      61              0.0000000000
      7631        61  DOPE      H10X          -32.2430304387       -4.7585761512        8.2704587279  MEMB      61              0.0000000000
      7632        61  DOPE      C311          -32.2935362929       -2.6669820073        7.6426963674  MEMB      61              0.0000000000
      7633        61  DOPE      H11X          -32.2146678494       -1.6725535260        8.1270453208  MEMB      61              0.0000000000
      7634        61  DOPE      H11Y          -31.3472316985       -2.8031654268        7.0947068053  MEMB      61              0.0000000000
      7635        61  DOPE      C312          -33.3795876426       -2.5623493132        6.5611655992  MEMB      61              0.0000000000
      7636        61  DOPE      H12X          -33.3388287284       -1.4991616271        6.2363049583  MEMB      61              0.0000000000
      7637        61  DOPE      H12Y          -34.3969814797       -2.7370182558        6.9618303356  MEMB      61              0.0000000000
      7638        61  DOPE      C313          -33.0510909121       -3.3796650915        5.3053325782  MEMB      61              0.0000000000
      7639        61  DOPE      H13X          -32.0184742593       -3.7795325191        5.4181058760  MEMB      61              0.0000000000
      7640        61  DOPE      H13Y          -33.7623621916       -4.2210828861        5.1794294631  MEMB      61              0.0000000000
      7641        61  DOPE      C314          -32.9853893827       -2.5185449278        4.0514819150  MEMB      61              0.0000000000
      7642        61  DOPE      H14X          -32.2847084930       -1.6779989431        4.2690050757  MEMB      61              0.0000000000
      7643        61  DOPE      H14Y          -33.9904120725       -2.0974534536        3.8293300932  MEMB      61              0.0000000000
      7644        61  DOPE      C315          -32.4606939192       -3.2157289052        2.7971773685  MEMB      61              0.0000000000
      7645        61  DOPE      H15X          -33.2008081693       -3.9752191537        2.4654458895  MEMB      61              0.0000000000
      7646        61  DOPE      H15Y          -31.4940501217       -3.7261957993        3.0035344114  MEMB      61              0.0000000000
      7647        61  DOPE      C316          -32.2852674408       -2.1402995134        1.7267124498  MEMB      61              0.0000000000
      7648        61  DOPE      H16X          -31.4038456580       -1.5103341095        1.9845075374  MEMB      61              0.0000000000
      7649        61  DOPE      H16Y          -33.1951842111       -1.4988885811        1.7491368879  MEMB      61              0.0000000000
      7650        61  DOPE      C317          -32.1400085277       -2.6175026186        0.2946027970  MEMB      61              0.0000000000
      7651        61  DOPE      H17X          -31.1899033834       -3.1757726284        0.2087515009  MEMB      61              0.0000000000
      7652        61  DOPE      H17Y          -32.9778449304       -3.3046678755        0.0341133854  MEMB      61              0.0000000000
      7653        61  DOPE      C318          -32.1157825760       -1.4264951703       -0.6588968883  MEMB      61              0.0000000000
      7654        61  DOPE      H18X          -32.2291352625       -1.7549822028       -1.7126537016  MEMB      61              0.0000000000
      7655        61  DOPE      H18Y          -32.9412251864       -0.7287763524       -0.4208195706  MEMB      61              0.0000000000
      7656        61  DOPE      H18Z          -31.1723130185       -0.8530333836       -0.5547412490  MEMB      61              0.0000000000
      7657        62  DOPC      N              28.2382981942      -17.8245523864       21.1458214752  MEMB      62              0.0000000000
      7658        62  DOPC      C12            29.4189849117      -18.3013804111       20.3004821939  MEMB      62              0.0000000000
      7659        62  DOPC      H12A           29.1648593886      -19.2242204775       19.7733261900  MEMB      62              0.0000000000
      7660        62  DOPC      H12B           30.2391437539      -18.5645069031       20.9539676640  MEMB      62              0.0000000000
      7661        62  DOPC      C13            27.9272245347      -18.8309634768       22.1904574500  MEMB      62              0.0000000000
      7662        62  DOPC      H13A           27.0970586846      -18.4970998402       22.7957842670  MEMB      62              0.0000000000
      7663        62  DOPC      H13B           27.6914752311      -19.8088904877       21.7832128605  MEMB      62              0.0000000000
      7664        62  DOPC      H13C           28.7774572759      -18.9857114077       22.8461188064  MEMB      62              0.0000000000
      7665        62  DOPC      C14            27.0431153524      -17.6352175867       20.2598777105  MEMB      62              0.0000000000
      7666        62  DOPC      H14A           26.7655568486      -18.5675685963       19.7717375365  MEMB      62              0.0000000000
      7667        62  DOPC      H14B           26.1991502540      -17.1833596545       20.7426414693  MEMB      62              0.0000000000
      7668        62  DOPC      H14C           27.3411055792      -17.0168470442       19.4060409533  MEMB      62              0.0000000000
      7669        62  DOPC      C15            28.6144597719      -16.5201460016       21.7640279049  MEMB      62              0.0000000000
      7670        62  DOPC      H15A           29.5768835720      -16.5635979911       22.2617956138  MEMB      62              0.0000000000
      7671        62  DOPC      H15B           27.8566010876      -16.1488731487       22.4338144170  MEMB      62              0.0000000000
      7672        62  DOPC      H15C           28.7288376749      -15.8146098472       20.9446481078  MEMB      62              0.0000000000
      7673        62  DOPC      C11            29.9142472877      -17.3269256273       19.2048369344  MEMB      62              0.0000000000
      7674        62  DOPC      H11A           30.2199587758      -16.3514591793       19.6384425103  MEMB      62              0.0000000000
      7675        62  DOPC      H11B           30.8347726657      -17.7337530375       18.7174686100  MEMB      62              0.0000000000
      7676        62  DOPC      P              28.5390905690      -18.3372378965       17.2585543743  MEMB      62              0.0000000000
      7677        62  DOPC      O13            27.1151205809      -18.6739504329       17.4643736183  MEMB      62              0.0000000000
      7678        62  DOPC      O14            29.5060423247      -19.4325171554       17.5180925922  MEMB      62              0.0000000000
      7679        62  DOPC      O12            28.8756021005      -17.1173521034       18.2455697879  MEMB      62              0.0000000000
      7680        62  DOPC      O11            28.7785259127      -17.6310034427       15.8479672217  MEMB      62              0.0000000000
      7681        62  DOPC      C1             29.5007825738      -16.3800054920       15.9042701856  MEMB      62              0.0000000000
      7682        62  DOPC      HA             30.3749127039      -16.4772934920       16.5968062596  MEMB      62              0.0000000000
      7683        62  DOPC      HB             28.8447642478      -15.5611538129       16.2725716134  MEMB      62              0.0000000000
      7684        62  DOPC      C2             30.2021429093      -15.9012404173       14.5981453925  MEMB      62              0.0000000000
      7685        62  DOPC      HS             30.8393735057      -15.0434389747       14.9200006959  MEMB      62              0.0000000000
      7686        62  DOPC      O21            29.2738178418      -15.4878895900       13.5769632401  MEMB      62              0.0000000000
      7687        62  DOPC      C21            29.8956408251      -14.8185452252       12.6138688265  MEMB      62              0.0000000000
      7688        62  DOPC      O22            31.0173955509      -14.3326160555       12.6931178585  MEMB      62              0.0000000000
      7689        62  DOPC      C22            28.9868442938      -14.7421082846       11.3975761749  MEMB      62              0.0000000000
      7690        62  DOPC      H2R            28.0379085670      -14.2558587317       11.6967801121  MEMB      62              0.0000000000
      7691        62  DOPC      H2S            28.7507728666      -15.7869284273       11.1156029763  MEMB      62              0.0000000000
      7692        62  DOPC      C3             31.1329422638      -16.9948757573       14.0261636360  MEMB      62              0.0000000000
      7693        62  DOPC      HX             31.9505227037      -17.0752262611       14.7681855229  MEMB      62              0.0000000000
      7694        62  DOPC      HY             31.6312349183      -16.6685729840       13.0862230791  MEMB      62              0.0000000000
      7695        62  DOPC      O31            30.4906396446      -18.2793596102       13.8820063516  MEMB      62              0.0000000000
      7696        62  DOPC      C31            29.9040609474      -18.4940195424       12.7280536838  MEMB      62              0.0000000000
      7697        62  DOPC      O32            29.9013100725      -17.7283750778       11.7807726937  MEMB      62              0.0000000000
      7698        62  DOPC      C32            29.3745373994      -19.9302855659       12.6578555535  MEMB      62              0.0000000000
      7699        62  DOPC      H2X            29.9687422729      -20.5533511584       13.3601505738  MEMB      62              0.0000000000
      7700        62  DOPC      H2Y            28.3196369383      -19.9352108799       12.9920101910  MEMB      62              0.0000000000
      7701        62  DOPC      C23            29.6170117201      -14.0126034714       10.1921861832  MEMB      62              0.0000000000
      7702        62  DOPC      H3R            30.6132613045      -14.4453424922        9.9396778634  MEMB      62              0.0000000000
      7703        62  DOPC      H3S            29.7748911654      -12.9409566300       10.4496596521  MEMB      62              0.0000000000
      7704        62  DOPC      C24            28.7080959250      -14.1072893174        8.9616688414  MEMB      62              0.0000000000
      7705        62  DOPC      H4R            29.0941192054      -13.4291293199        8.1683203326  MEMB      62              0.0000000000
      7706        62  DOPC      H4S            27.6868654584      -13.7603749259        9.2386535134  MEMB      62              0.0000000000
      7707        62  DOPC      C25            28.6099443815      -15.5340300580        8.4033252939  MEMB      62              0.0000000000
      7708        62  DOPC      H5R            28.1799473256      -16.2156266073        9.1688690143  MEMB      62              0.0000000000
      7709        62  DOPC      H5S            29.6381721619      -15.8995098009        8.1899152593  MEMB      62              0.0000000000
      7710        62  DOPC      C26            27.7267117022      -15.6112128339        7.1507333910  MEMB      62              0.0000000000
      7711        62  DOPC      H6R            26.8500880140      -14.9381458336        7.2784153379  MEMB      62              0.0000000000
      7712        62  DOPC      H6S            27.3402618085      -16.6507353618        7.0372119232  MEMB      62              0.0000000000
      7713        62  DOPC      C27            28.5046550949      -15.2526753528        5.8798644305  MEMB      62              0.0000000000
      7714        62  DOPC      H7R            29.0954181455      -14.3296959339        6.0701408430  MEMB      62              0.0000000000
      7715        62  DOPC      H7S            27.7914290048      -15.0428472993        5.0516154682  MEMB      62              0.0000000000
      7716        62  DOPC      C28            29.4321243873      -16.4099618887        5.4755890809  MEMB      62              0.0000000000
      7717        62  DOPC      H8R            28.8033357042      -17.2180591043        5.0422262194  MEMB      62              0.0000000000
      7718        62  DOPC      H8S            29.8648485633      -16.8382542467        6.4008462582  MEMB      62              0.0000000000
      7719        62  DOPC      C29            30.5294859201      -16.0534782405        4.5139609662  MEMB      62              0.0000000000
      7720        62  DOPC      H9R            30.3580925501      -15.1724986466        3.8781547250  MEMB      62              0.0000000000
      7721        62  DOPC      C210           31.7033174525      -16.6860581230        4.4318482375  MEMB      62              0.0000000000
      7722        62  DOPC      H10R           32.4049930275      -16.3988130626        3.6366470954  MEMB      62              0.0000000000
      7723        62  DOPC      C211           32.1355361318      -17.8495426093        5.2779416144  MEMB      62              0.0000000000
      7724        62  DOPC      H11R           31.6930023111      -17.8090632893        6.2976331393  MEMB      62              0.0000000000
      7725        62  DOPC      H11S           33.2345228196      -17.8137387777        5.4234219328  MEMB      62              0.0000000000
      7726        62  DOPC      C212           31.7397791127      -19.1801040404        4.6335527685  MEMB      62              0.0000000000
      7727        62  DOPC      H12R           30.6691790386      -19.1452879743        4.3334915546  MEMB      62              0.0000000000
      7728        62  DOPC      H12S           31.8819518981      -20.0018349576        5.3667284231  MEMB      62              0.0000000000
      7729        62  DOPC      C213           32.5904773023      -19.5146805349        3.4318338134  MEMB      62              0.0000000000
      7730        62  DOPC      H13R           33.6544946832      -19.3177770041        3.7005489781  MEMB      62              0.0000000000
      7731        62  DOPC      H13S           32.3002961429      -18.8024452042        2.6288140775  MEMB      62              0.0000000000
      7732        62  DOPC      C214           32.4847897232      -20.9801393248        2.9807664983  MEMB      62              0.0000000000
      7733        62  DOPC      H14R           31.4941015477      -21.1845732633        2.5195888179  MEMB      62              0.0000000000
      7734        62  DOPC      H14S           32.5953961763      -21.6563910352        3.8563319837  MEMB      62              0.0000000000
      7735        62  DOPC      C215           33.6066492282      -21.2723904302        1.9908645975  MEMB      62              0.0000000000
      7736        62  DOPC      H15R           33.7537227709      -22.3371259361        1.7742123399  MEMB      62              0.0000000000
      7737        62  DOPC      H15S           34.5614962760      -20.9527090883        2.4749832474  MEMB      62              0.0000000000
      7738        62  DOPC      C216           33.4466756178      -20.4481908423        0.7189186231  MEMB      62              0.0000000000
      7739        62  DOPC      H16R           34.3674377263      -20.5037187212        0.1043105928  MEMB      62              0.0000000000
      7740        62  DOPC      H16S           33.2926932683      -19.4097525528        1.0663388712  MEMB      62              0.0000000000
      7741        62  DOPC      C217           32.2604155356      -20.5780094166       -0.2130057592  MEMB      62              0.0000000000
      7742        62  DOPC      H17R           32.0693804623      -19.5290763474       -0.5538181967  MEMB      62              0.0000000000
      7743        62  DOPC      H17S           31.3427631420      -20.9411494355        0.2968396905  MEMB      62              0.0000000000
      7744        62  DOPC      C218           32.6100109587      -21.3553522067       -1.4644079975  MEMB      62              0.0000000000
      7745        62  DOPC      H18R           32.5385458216      -22.4198492386       -1.2271772010  MEMB      62              0.0000000000
      7746        62  DOPC      H18S           33.6523568583      -21.1910856062       -1.7992224926  MEMB      62              0.0000000000
      7747        62  DOPC      H18T           31.9398962696      -21.0745858466       -2.3082702397  MEMB      62              0.0000000000
      7748        62  DOPC      C33            29.5322358685      -20.4961292652       11.2233025633  MEMB      62              0.0000000000
      7749        62  DOPC      H3X            29.0071927343      -19.8574090591       10.4789310761  MEMB      62              0.0000000000
      7750        62  DOPC      H3Y            29.0734438579      -21.5048464187       11.1507006908  MEMB      62              0.0000000000
      7751        62  DOPC      C34            31.0254872053      -20.6185266077       10.8856018810  MEMB      62              0.0000000000
      7752        62  DOPC      H4X            31.5042639312      -21.0155203623       11.8048758780  MEMB      62              0.0000000000
      7753        62  DOPC      H4Y            31.4219153439      -19.6049310165       10.6642045621  MEMB      62              0.0000000000
      7754        62  DOPC      C35            31.4130266335      -21.5875836406        9.7654961887  MEMB      62              0.0000000000
      7755        62  DOPC      H5X            31.6096950365      -22.5469447307       10.2684151729  MEMB      62              0.0000000000
      7756        62  DOPC      H5Y            32.4000645907      -21.4009606069        9.3121505569  MEMB      62              0.0000000000
      7757        62  DOPC      C36            30.4410747788      -21.5464838765        8.5815961163  MEMB      62              0.0000000000
      7758        62  DOPC      H6X            30.7248887139      -22.3242444571        7.8420141831  MEMB      62              0.0000000000
      7759        62  DOPC      H6Y            29.4020357726      -21.7480953303        8.9092500441  MEMB      62              0.0000000000
      7760        62  DOPC      C37            30.5194368569      -20.1871708217        7.8763772628  MEMB      62              0.0000000000
      7761        62  DOPC      H7X            30.4171840445      -19.3429410595        8.5903868151  MEMB      62              0.0000000000
      7762        62  DOPC      H7Y            31.5376314767      -20.1327708613        7.4353613898  MEMB      62              0.0000000000
      7763        62  DOPC      C38            29.5541479732      -19.9770582963        6.7072937008  MEMB      62              0.0000000000
      7764        62  DOPC      H8X            29.8904183527      -20.6855383260        5.9201728782  MEMB      62              0.0000000000
      7765        62  DOPC      H8Y            29.7313426069      -18.9602247977        6.3058210449  MEMB      62              0.0000000000
      7766        62  DOPC      C39            28.0869215073      -20.0895583856        6.9868425611  MEMB      62              0.0000000000
      7767        62  DOPC      H9X            27.6761507412      -19.4098943693        7.7475874311  MEMB      62              0.0000000000
      7768        62  DOPC      C310           27.2796036136      -20.9035973428        6.3016848370  MEMB      62              0.0000000000
      7769        62  DOPC      H10X           26.2019191656      -20.9377797543        6.5218393016  MEMB      62              0.0000000000
      7770        62  DOPC      C311           27.7385704892      -21.7932181633        5.1870554763  MEMB      62              0.0000000000
      7771        62  DOPC      H11X           26.8700748590      -22.4402384147        4.9780909700  MEMB      62              0.0000000000
      7772        62  DOPC      H11Y           28.5834736659      -22.4460367358        5.5168706516  MEMB      62              0.0000000000
      7773        62  DOPC      C312           28.1643611241      -21.0891455047        3.8763480274  MEMB      62              0.0000000000
      7774        62  DOPC      H12X           28.4716499101      -21.8476491474        3.1313582002  MEMB      62              0.0000000000
      7775        62  DOPC      H12Y           29.0570957909      -20.4516293628        4.0299762541  MEMB      62              0.0000000000
      7776        62  DOPC      C313           27.0478740810      -20.2454948495        3.2575572336  MEMB      62              0.0000000000
      7777        62  DOPC      H13X           26.1639778995      -20.9073149350        3.1128036456  MEMB      62              0.0000000000
      7778        62  DOPC      H13Y           26.7646168055      -19.4425692613        3.9724583100  MEMB      62              0.0000000000
      7779        62  DOPC      C314           27.4370748414      -19.6289432761        1.9062133648  MEMB      62              0.0000000000
      7780        62  DOPC      H14X           27.9998324394      -20.3730023765        1.3001354744  MEMB      62              0.0000000000
      7781        62  DOPC      H14Y           26.4964382571      -19.3996569758        1.3525001210  MEMB      62              0.0000000000
      7782        62  DOPC      C315           28.2481404339      -18.3235150459        2.0185099374  MEMB      62              0.0000000000
      7783        62  DOPC      H15X           28.6283684343      -18.0957792244        1.0014255646  MEMB      62              0.0000000000
      7784        62  DOPC      H15Y           29.1354545785      -18.4568227193        2.6736360492  MEMB      62              0.0000000000
      7785        62  DOPC      C316           27.3784195789      -17.1637435501        2.5376504053  MEMB      62              0.0000000000
      7786        62  DOPC      H16X           26.3478555529      -17.3118271899        2.1667111861  MEMB      62              0.0000000000
      7787        62  DOPC      H16Y           27.2733718735      -17.2616883695        3.6386489651  MEMB      62              0.0000000000
      7788        62  DOPC      C317           27.8485149012      -15.7262470439        2.2104464256  MEMB      62              0.0000000000
      7789        62  DOPC      H17X           27.0242081985      -15.0339358855        2.4996779529  MEMB      62              0.0000000000
      7790        62  DOPC      H17Y           28.6822781525      -15.4915868701        2.8880010654  MEMB      62              0.0000000000
      7791        62  DOPC      C318           28.3153642352      -15.3715475412        0.7860102080  MEMB      62              0.0000000000
      7792        62  DOPC      H18X           27.5372169443      -14.7745354275        0.2634137333  MEMB      62              0.0000000000
      7793        62  DOPC      H18Y           29.2402022233      -14.7595328142        0.8170763720  MEMB      62              0.0000000000
      7794        62  DOPC      H18Z           28.5238982209      -16.2631250789        0.1697586585  MEMB      62              0.0000000000
      7795        63  DOPC      N             -19.5682510718       30.6893235005       19.5732663231  MEMB      63              0.0000000000
      7796        63  DOPC      C12           -20.0728177045       29.2860283932       19.8922408453  MEMB      63              0.0000000000
      7797        63  DOPC      H12A          -20.4169419382       28.8679978856       18.9499840492  MEMB      63              0.0000000000
      7798        63  DOPC      H12B          -20.8984379918       29.3532139526       20.5867679365  MEMB      63              0.0000000000
      7799        63  DOPC      C13           -18.4320636105       30.5200614460       18.6160513584  MEMB      63              0.0000000000
      7800        63  DOPC      H13A          -17.6181971465       29.9768658777       19.1081020524  MEMB      63              0.0000000000
      7801        63  DOPC      H13B          -18.7165538389       29.8524924753       17.7967056954  MEMB      63              0.0000000000
      7802        63  DOPC      H13C          -18.0653595148       31.4409762241       18.1934162986  MEMB      63              0.0000000000
      7803        63  DOPC      C14           -19.0924186514       31.3250200425       20.8391124590  MEMB      63              0.0000000000
      7804        63  DOPC      H14A          -18.2784292783       30.7243928134       21.2308222923  MEMB      63              0.0000000000
      7805        63  DOPC      H14B          -18.7442425259       32.3333563404       20.6769559213  MEMB      63              0.0000000000
      7806        63  DOPC      H14C          -19.8884689354       31.3540714675       21.5822129514  MEMB      63              0.0000000000
      7807        63  DOPC      C15           -20.6463519440       31.5477904123       18.9634781129  MEMB      63              0.0000000000
      7808        63  DOPC      H15A          -20.2907146167       32.5536732985       18.7431996579  MEMB      63              0.0000000000
      7809        63  DOPC      H15B          -21.4690200066       31.6821402438       19.6650291544  MEMB      63              0.0000000000
      7810        63  DOPC      H15C          -21.0203843341       31.1175732146       18.0464200170  MEMB      63              0.0000000000
      7811        63  DOPC      C11           -19.0612983599       28.2321190739       20.4559522176  MEMB      63              0.0000000000
      7812        63  DOPC      H11A          -18.6099134970       28.6263542956       21.3942693507  MEMB      63              0.0000000000
      7813        63  DOPC      H11B          -19.6310172444       27.3170503029       20.7377959580  MEMB      63              0.0000000000
      7814        63  DOPC      P             -18.3060764407       27.0677355473       18.2264463572  MEMB      63              0.0000000000
      7815        63  DOPC      O13           -18.8006246093       25.7424483519       18.6581385679  MEMB      63              0.0000000000
      7816        63  DOPC      O14           -17.1138885848       27.0562339324       17.3737293182  MEMB      63              0.0000000000
      7817        63  DOPC      O12           -18.0085199519       27.8830432267       19.5548870696  MEMB      63              0.0000000000
      7818        63  DOPC      O11           -19.5205390000       27.8819425428       17.5821398879  MEMB      63              0.0000000000
      7819        63  DOPC      C1            -20.2870538276       27.3818573005       16.4873268975  MEMB      63              0.0000000000
      7820        63  DOPC      HA            -21.1833851875       26.8753569466       16.8953874486  MEMB      63              0.0000000000
      7821        63  DOPC      HB            -19.7071982288       26.6381789439       15.8817540433  MEMB      63              0.0000000000
      7822        63  DOPC      C2            -20.7863404927       28.4821534659       15.4860407105  MEMB      63              0.0000000000
      7823        63  DOPC      HS            -20.9166331205       27.9867820343       14.4892793449  MEMB      63              0.0000000000
      7824        63  DOPC      O21           -19.8900566835       29.6074870162       15.4408921829  MEMB      63              0.0000000000
      7825        63  DOPC      C21           -18.9614114147       29.5036746633       14.5164186779  MEMB      63              0.0000000000
      7826        63  DOPC      O22           -18.7305984939       28.5338953370       13.8250652400  MEMB      63              0.0000000000
      7827        63  DOPC      C22           -18.3752434755       30.9167684713       14.3139481842  MEMB      63              0.0000000000
      7828        63  DOPC      H2R           -17.8177739064       31.1485968881       15.2426784748  MEMB      63              0.0000000000
      7829        63  DOPC      H2S           -19.2237266124       31.6178140651       14.2015116359  MEMB      63              0.0000000000
      7830        63  DOPC      C3            -22.1838993216       29.0777751962       15.8558811368  MEMB      63              0.0000000000
      7831        63  DOPC      HX            -22.1118478737       29.3393557756       16.9334073571  MEMB      63              0.0000000000
      7832        63  DOPC      HY            -22.9880335305       28.3155348272       15.7538578328  MEMB      63              0.0000000000
      7833        63  DOPC      O31           -22.4928170509       30.2957521600       15.1185502195  MEMB      63              0.0000000000
      7834        63  DOPC      C31           -22.7681018360       30.0879160982       13.8209416130  MEMB      63              0.0000000000
      7835        63  DOPC      O32           -22.9910108288       29.0022884270       13.3281492482  MEMB      63              0.0000000000
      7836        63  DOPC      C32           -22.7719082384       31.4364899386       13.0837332858  MEMB      63              0.0000000000
      7837        63  DOPC      H2X           -23.7486534204       31.9185765619       13.3051568995  MEMB      63              0.0000000000
      7838        63  DOPC      H2Y           -21.9669981902       32.0692234838       13.5079630838  MEMB      63              0.0000000000
      7839        63  DOPC      C23           -17.4092528060       31.0531768170       13.1080014148  MEMB      63              0.0000000000
      7840        63  DOPC      H3R           -17.0850633111       30.0220611472       12.8836862817  MEMB      63              0.0000000000
      7841        63  DOPC      H3S           -16.4834129829       31.5959846563       13.3706871405  MEMB      63              0.0000000000
      7842        63  DOPC      C24           -17.9742340632       31.5327757102       11.7867350186  MEMB      63              0.0000000000
      7843        63  DOPC      H4R           -17.1358391847       31.5840936844       11.0494451762  MEMB      63              0.0000000000
      7844        63  DOPC      H4S           -18.4689795499       32.5262826775       11.7908491968  MEMB      63              0.0000000000
      7845        63  DOPC      C25           -18.9445082269       30.4571195750       11.3761479725  MEMB      63              0.0000000000
      7846        63  DOPC      H5R           -19.8709037310       30.5414696749       11.9728360384  MEMB      63              0.0000000000
      7847        63  DOPC      H5S           -18.5289092965       29.4506096043       11.5996598416  MEMB      63              0.0000000000
      7848        63  DOPC      C26           -19.1911624992       30.4419627316        9.9031618147  MEMB      63              0.0000000000
      7849        63  DOPC      H6R           -18.2208382681       30.3024654840        9.3705305187  MEMB      63              0.0000000000
      7850        63  DOPC      H6S           -19.6072785713       31.4289787230        9.5955540656  MEMB      63              0.0000000000
      7851        63  DOPC      C27           -20.1455372604       29.2857017379        9.5742584884  MEMB      63              0.0000000000
      7852        63  DOPC      H7R           -20.8391261603       29.1220522192       10.4295938003  MEMB      63              0.0000000000
      7853        63  DOPC      H7S           -19.5764572021       28.3412912530        9.4232103844  MEMB      63              0.0000000000
      7854        63  DOPC      C28           -20.9557399970       29.6231550277        8.3436290196  MEMB      63              0.0000000000
      7855        63  DOPC      H8R           -21.5098711365       30.5399128207        8.6264006254  MEMB      63              0.0000000000
      7856        63  DOPC      H8S           -21.7075345768       28.8541941897        8.0763297446  MEMB      63              0.0000000000
      7857        63  DOPC      C29           -19.8843509159       29.8554915860        7.3116064583  MEMB      63              0.0000000000
      7858        63  DOPC      H9R           -19.4238801035       30.8569371517        7.3535094245  MEMB      63              0.0000000000
      7859        63  DOPC      C210          -19.5259248064       29.0493487718        6.3173948470  MEMB      63              0.0000000000
      7860        63  DOPC      H10R          -18.6832007827       29.3514187560        5.6826773137  MEMB      63              0.0000000000
      7861        63  DOPC      C211          -20.1016530462       27.7189991496        5.9637427628  MEMB      63              0.0000000000
      7862        63  DOPC      H11R          -20.9265293179       27.4184756396        6.6474381318  MEMB      63              0.0000000000
      7863        63  DOPC      H11S          -19.3106508386       26.9410488315        6.0153602067  MEMB      63              0.0000000000
      7864        63  DOPC      C212          -20.6360596634       27.8418637452        4.5222045101  MEMB      63              0.0000000000
      7865        63  DOPC      H12R          -20.7688145216       26.8359543185        4.0873385166  MEMB      63              0.0000000000
      7866        63  DOPC      H12S          -19.8829959315       28.3395887895        3.8736146334  MEMB      63              0.0000000000
      7867        63  DOPC      C213          -21.9700738026       28.6069279298        4.4290939432  MEMB      63              0.0000000000
      7868        63  DOPC      H13R          -21.7875462100       29.6515104299        4.7531900173  MEMB      63              0.0000000000
      7869        63  DOPC      H13S          -22.7100554901       28.1645767058        5.1304159945  MEMB      63              0.0000000000
      7870        63  DOPC      C214          -22.5568271062       28.6592208673        3.0131936677  MEMB      63              0.0000000000
      7871        63  DOPC      H14R          -23.4274701068       27.9737961947        2.9403804922  MEMB      63              0.0000000000
      7872        63  DOPC      H14S          -21.7752633123       28.3228440801        2.2991690758  MEMB      63              0.0000000000
      7873        63  DOPC      C215          -22.9900452474       30.0558788114        2.5628747954  MEMB      63              0.0000000000
      7874        63  DOPC      H15R          -22.0964903393       30.7126555068        2.6215484682  MEMB      63              0.0000000000
      7875        63  DOPC      H15S          -23.7513345585       30.4598031788        3.2590760552  MEMB      63              0.0000000000
      7876        63  DOPC      C216          -23.5211349005       30.0728480974        1.1244959095  MEMB      63              0.0000000000
      7877        63  DOPC      H16R          -24.1329593986       29.1899193623        0.9087515103  MEMB      63              0.0000000000
      7878        63  DOPC      H16S          -22.7001496593       29.8409612503        0.4266083505  MEMB      63              0.0000000000
      7879        63  DOPC      C217          -24.2814086324       31.3572875133        0.7118888195  MEMB      63              0.0000000000
      7880        63  DOPC      H17R          -25.3746345596       31.1541345346        0.7277366451  MEMB      63              0.0000000000
      7881        63  DOPC      H17S          -23.9918026947       31.5696006865       -0.3418074087  MEMB      63              0.0000000000
      7882        63  DOPC      C218          -24.0117374444       32.6640477025        1.4544387476  MEMB      63              0.0000000000
      7883        63  DOPC      H18R          -24.7840633180       33.4255131057        1.2081767481  MEMB      63              0.0000000000
      7884        63  DOPC      H18S          -23.0464869173       33.0635586577        1.1024800530  MEMB      63              0.0000000000
      7885        63  DOPC      H18T          -23.9741248590       32.5294704831        2.5527062167  MEMB      63              0.0000000000
      7886        63  DOPC      C33           -22.6160435209       31.3717897225       11.5377509305  MEMB      63              0.0000000000
      7887        63  DOPC      H3X           -23.1887458533       30.5178624678       11.1176263213  MEMB      63              0.0000000000
      7888        63  DOPC      H3Y           -21.5595345068       31.2149484609       11.2518251085  MEMB      63              0.0000000000
      7889        63  DOPC      C34           -23.0775472484       32.6866057430       10.8903499157  MEMB      63              0.0000000000
      7890        63  DOPC      H4X           -22.3582335706       33.4708351416       11.2221656354  MEMB      63              0.0000000000
      7891        63  DOPC      H4Y           -24.0577138596       32.9932761642       11.2999055553  MEMB      63              0.0000000000
      7892        63  DOPC      C35           -23.1370192195       32.7203920945        9.3473328001  MEMB      63              0.0000000000
      7893        63  DOPC      H5X           -22.0799265661       32.6796436337        9.0316924270  MEMB      63              0.0000000000
      7894        63  DOPC      H5Y           -23.5304408099       33.7193012396        9.0546515016  MEMB      63              0.0000000000
      7895        63  DOPC      C36           -23.9772000117       31.6722375126        8.5824254971  MEMB      63              0.0000000000
      7896        63  DOPC      H6X           -23.5954860170       30.6406786021        8.7210713239  MEMB      63              0.0000000000
      7897        63  DOPC      H6Y           -25.0072745795       31.6979768010        8.9723620742  MEMB      63              0.0000000000
      7898        63  DOPC      C37           -24.1838521227       31.9642776272        7.0801255139  MEMB      63              0.0000000000
      7899        63  DOPC      H7X           -25.1079237475       31.4251400498        6.7593066602  MEMB      63              0.0000000000
      7900        63  DOPC      H7Y           -24.3680870050       33.0489854298        6.9221322265  MEMB      63              0.0000000000
      7901        63  DOPC      C38           -23.0549564069       31.4692605932        6.1682456896  MEMB      63              0.0000000000
      7902        63  DOPC      H8X           -23.3666879450       31.6085521269        5.1132238256  MEMB      63              0.0000000000
      7903        63  DOPC      H8Y           -22.9622215976       30.3715138581        6.3402258329  MEMB      63              0.0000000000
      7904        63  DOPC      C39           -21.7615517793       32.1777305114        6.4723703034  MEMB      63              0.0000000000
      7905        63  DOPC      H9X           -21.3658975415       31.9702347465        7.4586233192  MEMB      63              0.0000000000
      7906        63  DOPC      C310          -20.9069982262       32.8160701717        5.6774936835  MEMB      63              0.0000000000
      7907        63  DOPC      H10X          -19.9959291233       33.2623618202        6.1112566524  MEMB      63              0.0000000000
      7908        63  DOPC      C311          -21.0718943726       32.9629554973        4.2130575896  MEMB      63              0.0000000000
      7909        63  DOPC      H11X          -21.2762846751       34.0111755645        3.9464056249  MEMB      63              0.0000000000
      7910        63  DOPC      H11Y          -21.9454214728       32.3761394727        3.8745135269  MEMB      63              0.0000000000
      7911        63  DOPC      C312          -19.8515250028       32.4418995460        3.4474661932  MEMB      63              0.0000000000
      7912        63  DOPC      H12X          -19.0683005585       33.2088158846        3.3131789221  MEMB      63              0.0000000000
      7913        63  DOPC      H12Y          -20.2549908421       32.1821006184        2.4490602813  MEMB      63              0.0000000000
      7914        63  DOPC      C313          -19.1640679710       31.2085539955        4.0364644921  MEMB      63              0.0000000000
      7915        63  DOPC      H13X          -18.7832114657       31.4025618721        5.0607775917  MEMB      63              0.0000000000
      7916        63  DOPC      H13Y          -19.9392512873       30.4170165733        4.0842991031  MEMB      63              0.0000000000
      7917        63  DOPC      C314          -18.0159159637       30.7070487794        3.1694741993  MEMB      63              0.0000000000
      7918        63  DOPC      H14X          -17.1754899731       31.4359598093        3.1893522830  MEMB      63              0.0000000000
      7919        63  DOPC      H14Y          -17.6370127767       29.7420320438        3.5696831359  MEMB      63              0.0000000000
      7920        63  DOPC      C315          -18.5224270956       30.5234889894        1.7449199602  MEMB      63              0.0000000000
      7921        63  DOPC      H15X          -18.5487941017       31.5282439140        1.2613157792  MEMB      63              0.0000000000
      7922        63  DOPC      H15Y          -19.5590030732       30.1228346990        1.7751113442  MEMB      63              0.0000000000
      7923        63  DOPC      C316          -17.6640315567       29.6180004418        0.8919277622  MEMB      63              0.0000000000
      7924        63  DOPC      H16X          -17.9888887825       29.7118237016       -0.1697951540  MEMB      63              0.0000000000
      7925        63  DOPC      H16Y          -16.6447025947       30.0346126416        0.9847642322  MEMB      63              0.0000000000
      7926        63  DOPC      C317          -17.6672163017       28.1375603853        1.2885810392  MEMB      63              0.0000000000
      7927        63  DOPC      H17X          -16.9176568604       27.6192969484        0.6482290303  MEMB      63              0.0000000000
      7928        63  DOPC      H17Y          -17.3310168906       28.0296506256        2.3441946481  MEMB      63              0.0000000000
      7929        63  DOPC      C318          -19.0163572043       27.4471606618        1.1192527557  MEMB      63              0.0000000000
      7930        63  DOPC      H18X          -18.9212269470       26.3538245137        1.2888837858  MEMB      63              0.0000000000
      7931        63  DOPC      H18Y          -19.7483317838       27.8574099977        1.8404192852  MEMB      63              0.0000000000
      7932        63  DOPC      H18Z          -19.4134815703       27.6184849664        0.0991180153  MEMB      63              0.0000000000
      7933        64  CHL1      C3            -32.5148246436       11.8308248544       17.3288432972  MEMB      64              0.0000000000
      7934        64  CHL1      H3            -32.5195551910       10.7207243492       17.2341111418  MEMB      64              0.0000000000
      7935        64  CHL1      O3            -32.4714112824       12.1593158100       18.7128096058  MEMB      64              0.0000000000
      7936        64  CHL1      H3'           -32.8786435952       11.4110993529       19.1692883019  MEMB      64              0.0000000000
      7937        64  CHL1      C4            -31.2890976188       12.4162569264       16.6038523774  MEMB      64              0.0000000000
      7938        64  CHL1      H4A           -31.2734585206       13.5182405501       16.7126792702  MEMB      64              0.0000000000
      7939        64  CHL1      H4B           -30.3632961851       12.1017552890       17.1005310064  MEMB      64              0.0000000000
      7940        64  CHL1      C5            -31.3500883054       11.9618443062       15.1617958340  MEMB      64              0.0000000000
      7941        64  CHL1      C6            -30.5207234803       11.0522363083       14.6377408071  MEMB      64              0.0000000000
      7942        64  CHL1      H6            -29.7399517364       10.6192153675       15.2593166127  MEMB      64              0.0000000000
      7943        64  CHL1      C7            -30.5647220783       10.6005244230       13.2083866929  MEMB      64              0.0000000000
      7944        64  CHL1      H7A           -29.5526968086       10.3474795344       12.8288307370  MEMB      64              0.0000000000
      7945        64  CHL1      H7B           -31.1909079431        9.6882971461       13.1142980441  MEMB      64              0.0000000000
      7946        64  CHL1      C8            -31.1547598628       11.7388021178       12.3554828847  MEMB      64              0.0000000000
      7947        64  CHL1      H8            -30.4599331642       12.6001345603       12.4753431812  MEMB      64              0.0000000000
      7948        64  CHL1      C14           -31.2884216219       11.3422322341       10.8922307482  MEMB      64              0.0000000000
      7949        64  CHL1      H14           -32.1445347858       10.6177729821       10.8400899176  MEMB      64              0.0000000000
      7950        64  CHL1      C15           -30.1104506730       10.6514918032       10.1856949918  MEMB      64              0.0000000000
      7951        64  CHL1      H15A          -29.1458952805       10.9519808412       10.6409935223  MEMB      64              0.0000000000
      7952        64  CHL1      H15B          -30.2435107521        9.5508380463       10.2506567481  MEMB      64              0.0000000000
      7953        64  CHL1      C16           -30.1840372766       11.1335488694        8.7218622901  MEMB      64              0.0000000000
      7954        64  CHL1      H16A          -29.3442095143       11.8326851349        8.5212214414  MEMB      64              0.0000000000
      7955        64  CHL1      H16B          -30.1466227497       10.3114899138        7.9886153988  MEMB      64              0.0000000000
      7956        64  CHL1      C17           -31.5320587926       11.8645947270        8.6183297601  MEMB      64              0.0000000000
      7957        64  CHL1      H17           -32.3066058894       11.0587979651        8.5799237037  MEMB      64              0.0000000000
      7958        64  CHL1      C13           -31.6398090782       12.5094951852        9.9926888952  MEMB      64              0.0000000000
      7959        64  CHL1      C18           -30.5505509735       13.5828688169       10.1318570327  MEMB      64              0.0000000000
      7960        64  CHL1      H18A          -30.0969742171       13.8826906959        9.1694864270  MEMB      64              0.0000000000
      7961        64  CHL1      H18B          -31.0179640488       14.4708691183       10.5833489880  MEMB      64              0.0000000000
      7962        64  CHL1      H18C          -29.7117789658       13.2552685681       10.7723833777  MEMB      64              0.0000000000
      7963        64  CHL1      C12           -33.0286022032       12.9645925253       10.3957101377  MEMB      64              0.0000000000
      7964        64  CHL1      H12A          -33.3452482917       13.8751765892        9.8458626559  MEMB      64              0.0000000000
      7965        64  CHL1      H12B          -33.6067352207       12.0863709668       10.0867497761  MEMB      64              0.0000000000
      7966        64  CHL1      C11           -33.1670945671       13.2285744406       11.8973649137  MEMB      64              0.0000000000
      7967        64  CHL1      H11A          -32.6907183936       14.2081008305       11.9428267566  MEMB      64              0.0000000000
      7968        64  CHL1      H11B          -34.1941187811       13.4148513673       12.2221663235  MEMB      64              0.0000000000
      7969        64  CHL1      C9            -32.5250108103       12.1874694632       12.8657860102  MEMB      64              0.0000000000
      7970        64  CHL1      H9            -33.1791162949       11.2836153188       12.8046618497  MEMB      64              0.0000000000
      7971        64  CHL1      C10           -32.4924285786       12.5944570753       14.3749134009  MEMB      64              0.0000000000
      7972        64  CHL1      C19           -32.3297980136       14.1110161610       14.4924932776  MEMB      64              0.0000000000
      7973        64  CHL1      H19A          -32.9401670677       14.7158077488       13.8079183212  MEMB      64              0.0000000000
      7974        64  CHL1      H19B          -32.5908910869       14.4923363279       15.4940501223  MEMB      64              0.0000000000
      7975        64  CHL1      H19C          -31.2744430014       14.3432901386       14.2865253945  MEMB      64              0.0000000000
      7976        64  CHL1      C1            -33.7467949920       12.1152671805       15.1444502440  MEMB      64              0.0000000000
      7977        64  CHL1      H1A           -34.6106225850       12.6179634875       14.7062245306  MEMB      64              0.0000000000
      7978        64  CHL1      H1B           -33.8528777942       11.0194968735       14.9778447851  MEMB      64              0.0000000000
      7979        64  CHL1      C2            -33.7805192774       12.3712670745       16.6717864195  MEMB      64              0.0000000000
      7980        64  CHL1      H2A           -34.7095507518       11.9421064144       17.0988948897  MEMB      64              0.0000000000
      7981        64  CHL1      H2B           -33.7999306566       13.4512704612       16.8905353643  MEMB      64              0.0000000000
      7982        64  CHL1      C20           -31.7380731543       12.7281780460        7.3763194844  MEMB      64              0.0000000000
      7983        64  CHL1      H20           -31.1558710606       13.6720534502        7.4370119879  MEMB      64              0.0000000000
      7984        64  CHL1      C21           -33.2315574377       13.0647695400        7.2439877066  MEMB      64              0.0000000000
      7985        64  CHL1      H21A          -33.5003789943       13.3189492541        6.1986925045  MEMB      64              0.0000000000
      7986        64  CHL1      H21B          -33.5220045639       13.9228689084        7.8753289383  MEMB      64              0.0000000000
      7987        64  CHL1      H21C          -33.8180695464       12.1675984402        7.5354327790  MEMB      64              0.0000000000
      7988        64  CHL1      C22           -31.3175287020       12.0240050842        6.0782351012  MEMB      64              0.0000000000
      7989        64  CHL1      H22A          -31.6146175696       12.7175834112        5.2604186522  MEMB      64              0.0000000000
      7990        64  CHL1      H22B          -30.2143810315       11.9165241834        6.0300924918  MEMB      64              0.0000000000
      7991        64  CHL1      C23           -31.9952077060       10.6607034820        5.8654163527  MEMB      64              0.0000000000
      7992        64  CHL1      H23A          -31.7105984505        9.9448459938        6.6647598776  MEMB      64              0.0000000000
      7993        64  CHL1      H23B          -33.1015900054       10.7734243931        5.9174242573  MEMB      64              0.0000000000
      7994        64  CHL1      C24           -31.6607660173       10.0496808999        4.5037064251  MEMB      64              0.0000000000
      7995        64  CHL1      H24A          -30.5642077097        9.9141809535        4.4004311475  MEMB      64              0.0000000000
      7996        64  CHL1      H24B          -32.1184424818        9.0353921304        4.4860266365  MEMB      64              0.0000000000
      7997        64  CHL1      C25           -32.2425511300       10.9063082074        3.3573718723  MEMB      64              0.0000000000
      7998        64  CHL1      H25           -32.9981431838       11.5901660957        3.8191428004  MEMB      64              0.0000000000
      7999        64  CHL1      C26           -31.1891895524       11.7937045034        2.6666307989  MEMB      64              0.0000000000
      8000        64  CHL1      H26A          -30.3810349787       11.1791575985        2.2302958317  MEMB      64              0.0000000000
      8001        64  CHL1      H26B          -31.6584322881       12.3761825741        1.8472102880  MEMB      64              0.0000000000
      8002        64  CHL1      H26C          -30.7216754967       12.5092348293        3.3746294627  MEMB      64              0.0000000000
      8003        64  CHL1      C27           -32.9935828020       10.0503909192        2.3287119428  MEMB      64              0.0000000000
      8004        64  CHL1      H27A          -33.9111350594       10.5696383403        1.9815102097  MEMB      64              0.0000000000
      8005        64  CHL1      H27B          -32.3357031060        9.8692322396        1.4531947768  MEMB      64              0.0000000000
      8006        64  CHL1      H27C          -33.2997468313        9.0702605258        2.7557386689  MEMB      64              0.0000000000
      8007        65  DOPE      N             -10.8408714259       33.6685459762       21.4982173789  MEMB      65              0.0000000000
      8008        65  DOPE      HN1           -11.7605486890       33.5008557138       21.0259997550  MEMB      65              0.0000000000
      8009        65  DOPE      HN2           -10.5531448256       32.7565922554       21.9267967400  MEMB      65              0.0000000000
      8010        65  DOPE      HN3           -10.9631904203       34.4052590681       22.2193196273  MEMB      65              0.0000000000
      8011        65  DOPE      C12            -9.8717621892       34.0416082486       20.4064211086  MEMB      65              0.0000000000
      8012        65  DOPE      H12A           -8.8741671523       33.6337230964       20.6671713430  MEMB      65              0.0000000000
      8013        65  DOPE      H12B           -9.8161574785       35.1382080598       20.3193558695  MEMB      65              0.0000000000
      8014        65  DOPE      C11           -10.3789885355       33.4492194831       19.1003167136  MEMB      65              0.0000000000
      8015        65  DOPE      H11A           -9.6268119964       33.6389034097       18.2930080686  MEMB      65              0.0000000000
      8016        65  DOPE      H11B          -11.3145116635       33.9666556524       18.7865795114  MEMB      65              0.0000000000
      8017        65  DOPE      P             -11.9573438237       31.3108141033       19.3597969562  MEMB      65              0.0000000000
      8018        65  DOPE      O13           -11.7578663156       29.9511836602       19.8850669349  MEMB      65              0.0000000000
      8019        65  DOPE      O14           -12.5274499419       31.4306434205       18.0181928957  MEMB      65              0.0000000000
      8020        65  DOPE      O11           -12.8746179218       32.0996107734       20.4344787677  MEMB      65              0.0000000000
      8021        65  DOPE      O12           -10.5607633266       32.0584947391       19.3240442386  MEMB      65              0.0000000000
      8022        65  DOPE      C1            -14.1573927964       31.4589748786       20.6863501046  MEMB      65              0.0000000000
      8023        65  DOPE      HA            -14.6061372650       31.9250083870       21.5976809868  MEMB      65              0.0000000000
      8024        65  DOPE      HB            -14.0604871455       30.3772723865       20.9494920672  MEMB      65              0.0000000000
      8025        65  DOPE      C2            -15.2368366525       31.6728035856       19.5479228283  MEMB      65              0.0000000000
      8026        65  DOPE      HS            -16.2285605121       31.4394526833       19.9806222284  MEMB      65              0.0000000000
      8027        65  DOPE      O21           -15.0804269180       30.8721651097       18.3471854275  MEMB      65              0.0000000000
      8028        65  DOPE      C21           -15.0370356841       29.5415040843       18.5110425709  MEMB      65              0.0000000000
      8029        65  DOPE      O22           -15.3501261667       28.9903896899       19.5517662241  MEMB      65              0.0000000000
      8030        65  DOPE      C22           -14.5426757336       28.8058786687       17.2177414414  MEMB      65              0.0000000000
      8031        65  DOPE      H2R           -15.0977943372       27.8675893808       17.1271458264  MEMB      65              0.0000000000
      8032        65  DOPE      H2S           -13.4929959145       28.5218373222       17.4235871277  MEMB      65              0.0000000000
      8033        65  DOPE      C3            -15.2766806069       33.1726717535       19.1259852815  MEMB      65              0.0000000000
      8034        65  DOPE      HX            -15.4422686728       33.7818876677       20.0348322478  MEMB      65              0.0000000000
      8035        65  DOPE      HY            -16.1496991768       33.2788423913       18.4447668585  MEMB      65              0.0000000000
      8036        65  DOPE      O31           -14.0535634353       33.5987728616       18.5072516169  MEMB      65              0.0000000000
      8037        65  DOPE      C31           -14.1916302818       34.4874241781       17.5545486674  MEMB      65              0.0000000000
      8038        65  DOPE      O32           -15.1367011176       35.2580099064       17.4659677994  MEMB      65              0.0000000000
      8039        65  DOPE      C32           -13.0242036256       34.3813741836       16.5731045868  MEMB      65              0.0000000000
      8040        65  DOPE      H2X           -12.6089647003       35.3968625117       16.4369597037  MEMB      65              0.0000000000
      8041        65  DOPE      H2Y           -12.2403712343       33.7292742388       17.0014037098  MEMB      65              0.0000000000
      8042        65  DOPE      C23           -14.6806052720       29.6628574945       15.9198527909  MEMB      65              0.0000000000
      8043        65  DOPE      H3R           -13.7867626548       30.3299835233       15.9180776008  MEMB      65              0.0000000000
      8044        65  DOPE      H3S           -15.5653860609       30.3188295833       16.0990760667  MEMB      65              0.0000000000
      8045        65  DOPE      C24           -14.9107707603       29.1442365388       14.4475363359  MEMB      65              0.0000000000
      8046        65  DOPE      H4R           -14.0663061395       29.4280725326       13.7911239972  MEMB      65              0.0000000000
      8047        65  DOPE      H4S           -15.7016369095       29.8310967133       14.1450143664  MEMB      65              0.0000000000
      8048        65  DOPE      C25           -15.5079987849       27.7709342546       14.0358868342  MEMB      65              0.0000000000
      8049        65  DOPE      H5R           -16.5340716135       27.6510337463       14.4330302766  MEMB      65              0.0000000000
      8050        65  DOPE      H5S           -14.8939615577       27.0073157794       14.5632778446  MEMB      65              0.0000000000
      8051        65  DOPE      C26           -15.4577192331       27.3889677984       12.4980975844  MEMB      65              0.0000000000
      8052        65  DOPE      H6R           -15.7328754823       26.3113735507       12.4110009367  MEMB      65              0.0000000000
      8053        65  DOPE      H6S           -14.4022841950       27.4879675853       12.2104667253  MEMB      65              0.0000000000
      8054        65  DOPE      C27           -16.1839415840       28.1204562994       11.3237308912  MEMB      65              0.0000000000
      8055        65  DOPE      H7R           -16.1261225514       29.2155131833       11.4372291273  MEMB      65              0.0000000000
      8056        65  DOPE      H7S           -17.2446180544       27.7907096862       11.2882950131  MEMB      65              0.0000000000
      8057        65  DOPE      C28           -15.5130656170       27.8538961073        9.9327411731  MEMB      65              0.0000000000
      8058        65  DOPE      H8R           -15.2967162114       26.7729234505        9.9066391172  MEMB      65              0.0000000000
      8059        65  DOPE      H8S           -14.5303480976       28.3754397087        9.9670198612  MEMB      65              0.0000000000
      8060        65  DOPE      C29           -16.2223762084       28.2349802483        8.6423876106  MEMB      65              0.0000000000
      8061        65  DOPE      H9R           -17.3063035442       28.4049910379        8.7335006693  MEMB      65              0.0000000000
      8062        65  DOPE      C210          -15.6490668400       28.3131379386        7.4137489064  MEMB      65              0.0000000000
      8063        65  DOPE      H10R          -16.2482252512       28.6210639195        6.5429277853  MEMB      65              0.0000000000
      8064        65  DOPE      C211          -14.2012626427       28.0315161686        7.1019630224  MEMB      65              0.0000000000
      8065        65  DOPE      H11R          -13.8238838751       27.3194488455        7.8567429727  MEMB      65              0.0000000000
      8066        65  DOPE      H11S          -13.5790851698       28.9430607710        7.2015351711  MEMB      65              0.0000000000
      8067        65  DOPE      C212          -13.8829547758       27.3532457429        5.7526709513  MEMB      65              0.0000000000
      8068        65  DOPE      H12R          -14.5355542486       26.4692749750        5.5927474620  MEMB      65              0.0000000000
      8069        65  DOPE      H12S          -12.8307935238       26.9889032436        5.8086455746  MEMB      65              0.0000000000
      8070        65  DOPE      C213          -13.8791133690       28.2386401823        4.5118976615  MEMB      65              0.0000000000
      8071        65  DOPE      H13R          -13.4259568051       29.2241206679        4.7585079205  MEMB      65              0.0000000000
      8072        65  DOPE      H13S          -14.9191036306       28.4120096903        4.1649453187  MEMB      65              0.0000000000
      8073        65  DOPE      C214          -13.0190910436       27.5831206283        3.4172278494  MEMB      65              0.0000000000
      8074        65  DOPE      H14R          -13.3993772809       26.5645170980        3.1823435463  MEMB      65              0.0000000000
      8075        65  DOPE      H14S          -11.9786866920       27.4731367960        3.8052840668  MEMB      65              0.0000000000
      8076        65  DOPE      C215          -12.9581590185       28.4243942080        2.1508219481  MEMB      65              0.0000000000
      8077        65  DOPE      H15R          -12.1356865158       28.0640720987        1.4922024775  MEMB      65              0.0000000000
      8078        65  DOPE      H15S          -12.7300445518       29.4723054339        2.4418800737  MEMB      65              0.0000000000
      8079        65  DOPE      C216          -14.2623206496       28.3935285139        1.3559290287  MEMB      65              0.0000000000
      8080        65  DOPE      H16R          -15.1425372120       28.4539492700        2.0235591137  MEMB      65              0.0000000000
      8081        65  DOPE      H16S          -14.3127061488       27.4244190275        0.8266649539  MEMB      65              0.0000000000
      8082        65  DOPE      C217          -14.2878825129       29.5176929098        0.3267394978  MEMB      65              0.0000000000
      8083        65  DOPE      H17R          -13.2202344090       29.7167145166        0.1139493105  MEMB      65              0.0000000000
      8084        65  DOPE      H17S          -14.6722098873       30.4558786803        0.7810856188  MEMB      65              0.0000000000
      8085        65  DOPE      C218          -14.9922313347       29.1760687451       -0.9939663320  MEMB      65              0.0000000000
      8086        65  DOPE      H18R          -14.9324754935       28.0948273943       -1.2161553267  MEMB      65              0.0000000000
      8087        65  DOPE      H18S          -14.5217510081       29.7350688178       -1.8298645732  MEMB      65              0.0000000000
      8088        65  DOPE      H18T          -16.0618708282       29.4457149758       -0.9885892161  MEMB      65              0.0000000000
      8089        65  DOPE      C33           -13.4600584784       33.7113187568       15.2560539250  MEMB      65              0.0000000000
      8090        65  DOPE      H3X           -14.1097745275       34.4181993029       14.6923395377  MEMB      65              0.0000000000
      8091        65  DOPE      H3Y           -14.0366440829       32.7870864765       15.4947518440  MEMB      65              0.0000000000
      8092        65  DOPE      C34           -12.3234957864       33.2761524957       14.3271175872  MEMB      65              0.0000000000
      8093        65  DOPE      H4X           -11.5276049174       34.0466069100       14.3257016924  MEMB      65              0.0000000000
      8094        65  DOPE      H4Y           -11.8731427886       32.3330694117       14.7065562332  MEMB      65              0.0000000000
      8095        65  DOPE      C35           -12.8673908614       33.1119319326       12.9023834291  MEMB      65              0.0000000000
      8096        65  DOPE      H5X           -13.7235929280       33.8178676667       12.7792479269  MEMB      65              0.0000000000
      8097        65  DOPE      H5Y           -13.2644770461       32.0835624449       12.7773725203  MEMB      65              0.0000000000
      8098        65  DOPE      C36           -11.8825508981       33.4439658515       11.7770144662  MEMB      65              0.0000000000
      8099        65  DOPE      H6X           -11.1308403817       32.6353327358       11.6770014360  MEMB      65              0.0000000000
      8100        65  DOPE      H6Y           -11.3042071372       34.3589250414       12.0234254413  MEMB      65              0.0000000000
      8101        65  DOPE      C37           -12.6555341386       33.6893607998       10.4688869843  MEMB      65              0.0000000000
      8102        65  DOPE      H7X           -13.4792193481       34.4101853623       10.6877497990  MEMB      65              0.0000000000
      8103        65  DOPE      H7Y           -11.9943751727       34.1793915854        9.7202231864  MEMB      65              0.0000000000
      8104        65  DOPE      C38           -13.2721696492       32.4132205114        9.8711866329  MEMB      65              0.0000000000
      8105        65  DOPE      H8X           -13.8968518523       32.7034999964        8.9968301108  MEMB      65              0.0000000000
      8106        65  DOPE      H8Y           -13.9665553866       31.9516709335       10.6081300466  MEMB      65              0.0000000000
      8107        65  DOPE      C39           -12.1685781976       31.4550520105        9.4993203998  MEMB      65              0.0000000000
      8108        65  DOPE      H9X           -11.6231068789       31.0134053642       10.3469996155  MEMB      65              0.0000000000
      8109        65  DOPE      C310          -11.7903998137       31.1051476126        8.2633421606  MEMB      65              0.0000000000
      8110        65  DOPE      H10X          -10.9139983632       30.4479144172        8.1561257185  MEMB      65              0.0000000000
      8111        65  DOPE      C311          -12.3822360539       31.5884358717        6.9656515822  MEMB      65              0.0000000000
      8112        65  DOPE      H11X          -13.0866473591       30.8289061959        6.5677588968  MEMB      65              0.0000000000
      8113        65  DOPE      H11Y          -12.9549014472       32.5357952702        7.0699180165  MEMB      65              0.0000000000
      8114        65  DOPE      C312          -11.2856913904       31.8003182322        5.9209096276  MEMB      65              0.0000000000
      8115        65  DOPE      H12X          -10.5329305656       30.9824439837        5.9786697372  MEMB      65              0.0000000000
      8116        65  DOPE      H12Y          -10.7549644158       32.7488104038        6.1386771448  MEMB      65              0.0000000000
      8117        65  DOPE      C313          -11.8369162973       31.8205831858        4.4945127959  MEMB      65              0.0000000000
      8118        65  DOPE      H13X          -11.1225839647       31.2578772301        3.8552413889  MEMB      65              0.0000000000
      8119        65  DOPE      H13Y          -12.8091352268       31.2892803463        4.4245367928  MEMB      65              0.0000000000
      8120        65  DOPE      C314          -11.9687049376       33.2331604315        3.9279883324  MEMB      65              0.0000000000
      8121        65  DOPE      H14X          -11.3071125137       33.9258781906        4.4973973213  MEMB      65              0.0000000000
      8122        65  DOPE      H14Y          -13.0094141128       33.6013472685        4.0511633728  MEMB      65              0.0000000000
      8123        65  DOPE      C315          -11.4965378100       33.2818606175        2.4779963825  MEMB      65              0.0000000000
      8124        65  DOPE      H15X          -10.4024849762       33.0865231304        2.4678900440  MEMB      65              0.0000000000
      8125        65  DOPE      H15Y          -11.6411876571       34.2832664193        2.0336530257  MEMB      65              0.0000000000
      8126        65  DOPE      C316          -12.1330094962       32.2773846329        1.5254865784  MEMB      65              0.0000000000
      8127        65  DOPE      H16X          -13.2381548791       32.2562976222        1.6355804609  MEMB      65              0.0000000000
      8128        65  DOPE      H16Y          -11.7543496411       31.2536015050        1.7287915741  MEMB      65              0.0000000000
      8129        65  DOPE      C317          -11.7257184295       32.7187346816        0.1222799790  MEMB      65              0.0000000000
      8130        65  DOPE      H17X          -12.1780744900       33.7185890654       -0.0667382617  MEMB      65              0.0000000000
      8131        65  DOPE      H17Y          -10.6185803722       32.8466919009        0.1102762100  MEMB      65              0.0000000000
      8132        65  DOPE      C318          -12.1270281952       31.7636496095       -0.9803267411  MEMB      65              0.0000000000
      8133        65  DOPE      H18X          -11.5707847515       30.8118419769       -0.8612327155  MEMB      65              0.0000000000
      8134        65  DOPE      H18Y          -13.2148602282       31.5548452888       -0.9293643075  MEMB      65              0.0000000000
      8135        65  DOPE      H18Z          -11.9103077635       32.1988086907       -1.9758329272  MEMB      65              0.0000000000
      8136        66  DOPC      N              -0.0024985910      -35.4991061264       20.9957408379  MEMB      66              0.0000000000
      8137        66  DOPC      C12            -0.4149164826      -34.8332849688       19.6839651901  MEMB      66              0.0000000000
      8138        66  DOPC      H12A            0.2363144878      -33.9669676550       19.5136217799  MEMB      66              0.0000000000
      8139        66  DOPC      H12B           -1.4156280569      -34.4350616696       19.7579514672  MEMB      66              0.0000000000
      8140        66  DOPC      C13             1.4976498225      -35.4443597628       21.0812554012  MEMB      66              0.0000000000
      8141        66  DOPC      H13A            1.8284831485      -34.4070013551       20.9877207036  MEMB      66              0.0000000000
      8142        66  DOPC      H13B            1.8947205494      -35.8105544335       22.0131257991  MEMB      66              0.0000000000
      8143        66  DOPC      H13C            1.9418274892      -35.9654885593       20.2337092058  MEMB      66              0.0000000000
      8144        66  DOPC      C14            -0.4969643519      -36.9211555337       21.0238569676  MEMB      66              0.0000000000
      8145        66  DOPC      H14A           -0.0083031590      -37.4764308694       20.2207044924  MEMB      66              0.0000000000
      8146        66  DOPC      H14B           -0.3290235264      -37.4310482243       21.9607016434  MEMB      66              0.0000000000
      8147        66  DOPC      H14C           -1.5655365273      -36.9362211329       20.8376708114  MEMB      66              0.0000000000
      8148        66  DOPC      C15            -0.5521875777      -34.7315606214       22.1456527489  MEMB      66              0.0000000000
      8149        66  DOPC      H15A           -1.6302732502      -34.6539318353       22.1092386484  MEMB      66              0.0000000000
      8150        66  DOPC      H15B           -0.1501101462      -33.7151963491       22.1569929400  MEMB      66              0.0000000000
      8151        66  DOPC      H15C           -0.2862039491      -35.1841891500       23.0920392124  MEMB      66              0.0000000000
      8152        66  DOPC      C11            -0.2822084334      -35.6844972334       18.3950415252  MEMB      66              0.0000000000
      8153        66  DOPC      H11A           -0.8792345557      -36.6153089033       18.4919506326  MEMB      66              0.0000000000
      8154        66  DOPC      H11B           -0.7378404400      -35.1401573753       17.5312608207  MEMB      66              0.0000000000
      8155        66  DOPC      P               2.0042412978      -34.8552939938       17.5012934834  MEMB      66              0.0000000000
      8156        66  DOPC      O13             3.4242453521      -35.2093490737       17.6549547761  MEMB      66              0.0000000000
      8157        66  DOPC      O14             1.5386273157      -33.5680978843       18.0887232148  MEMB      66              0.0000000000
      8158        66  DOPC      O12             1.0923998514      -36.0114917642       18.1462096159  MEMB      66              0.0000000000
      8159        66  DOPC      O11             1.6591274753      -34.9947108380       15.9334248543  MEMB      66              0.0000000000
      8160        66  DOPC      C1              1.5306992950      -36.3400176995       15.4432706011  MEMB      66              0.0000000000
      8161        66  DOPC      HA              0.4543530002      -36.6033651807       15.4872340714  MEMB      66              0.0000000000
      8162        66  DOPC      HB              2.0600348516      -37.0849939281       16.0927083318  MEMB      66              0.0000000000
      8163        66  DOPC      C2              2.0569156149      -36.6820774210       13.9911893329  MEMB      66              0.0000000000
      8164        66  DOPC      HS              2.8991067167      -37.3941763576       14.1625432773  MEMB      66              0.0000000000
      8165        66  DOPC      O21             2.5197685806      -35.5805445474       13.1643829392  MEMB      66              0.0000000000
      8166        66  DOPC      C21             2.7264191895      -35.9187944054       11.8734884519  MEMB      66              0.0000000000
      8167        66  DOPC      O22             3.4231284372      -36.8328244567       11.4827335433  MEMB      66              0.0000000000
      8168        66  DOPC      C22             1.7805610675      -35.1430015207       10.9334258722  MEMB      66              0.0000000000
      8169        66  DOPC      H2R             1.0652334547      -35.8834567170       10.5175627273  MEMB      66              0.0000000000
      8170        66  DOPC      H2S             2.3813979748      -34.7538957246       10.0921242026  MEMB      66              0.0000000000
      8171        66  DOPC      C3              0.9223206857      -37.4096330276       13.2302827092  MEMB      66              0.0000000000
      8172        66  DOPC      HX              0.4125094659      -36.6010730660       12.6497680541  MEMB      66              0.0000000000
      8173        66  DOPC      HY              0.1323302978      -37.8310901025       13.8821491901  MEMB      66              0.0000000000
      8174        66  DOPC      O31             1.4849225137      -38.4344307956       12.3852574859  MEMB      66              0.0000000000
      8175        66  DOPC      C31             0.6092767645      -38.7835759753       11.4576951786  MEMB      66              0.0000000000
      8176        66  DOPC      O32            -0.5531812245      -38.4235635015       11.4651794848  MEMB      66              0.0000000000
      8177        66  DOPC      C32             1.2517368224      -39.6462334551       10.3840620653  MEMB      66              0.0000000000
      8178        66  DOPC      H2X             2.2307124328      -40.0236377595       10.7528004299  MEMB      66              0.0000000000
      8179        66  DOPC      H2Y             0.5832277792      -40.5145799159       10.2118299355  MEMB      66              0.0000000000
      8180        66  DOPC      C23             0.9680229585      -34.0032041267       11.5799296721  MEMB      66              0.0000000000
      8181        66  DOPC      H3R             1.5671722019      -33.5146320255       12.3829825274  MEMB      66              0.0000000000
      8182        66  DOPC      H3S             0.0474863113      -34.4073833057       12.0566471279  MEMB      66              0.0000000000
      8183        66  DOPC      C24             0.5845362406      -32.8961292612       10.5960549980  MEMB      66              0.0000000000
      8184        66  DOPC      H4R             1.5065231666      -32.4110272073       10.2105866510  MEMB      66              0.0000000000
      8185        66  DOPC      H4S            -0.0056209568      -32.1408634238       11.1672113242  MEMB      66              0.0000000000
      8186        66  DOPC      C25            -0.2147263631      -33.3231663052        9.3732870219  MEMB      66              0.0000000000
      8187        66  DOPC      H5R            -0.8617673792      -34.1825322280        9.6334796410  MEMB      66              0.0000000000
      8188        66  DOPC      H5S             0.4901184541      -33.7087155217        8.6197258022  MEMB      66              0.0000000000
      8189        66  DOPC      C26            -1.0949363225      -32.1683269379        8.8455001505  MEMB      66              0.0000000000
      8190        66  DOPC      H6R            -1.3818595222      -31.5247843938        9.6956325260  MEMB      66              0.0000000000
      8191        66  DOPC      H6S            -2.0688170208      -32.5845445033        8.5119245673  MEMB      66              0.0000000000
      8192        66  DOPC      C27            -0.5229658226      -31.3885416135        7.6444892772  MEMB      66              0.0000000000
      8193        66  DOPC      H7R             0.3549372306      -30.7793483969        7.9351378109  MEMB      66              0.0000000000
      8194        66  DOPC      H7S            -1.2948711211      -30.6756195186        7.2677293024  MEMB      66              0.0000000000
      8195        66  DOPC      C28            -0.1097576660      -32.3394960953        6.5196262172  MEMB      66              0.0000000000
      8196        66  DOPC      H8R             0.7551923267      -32.9241830070        6.8509886234  MEMB      66              0.0000000000
      8197        66  DOPC      H8S             0.2027832748      -31.7993136343        5.6136036980  MEMB      66              0.0000000000
      8198        66  DOPC      C29            -1.2723638334      -33.2447157162        6.2863080574  MEMB      66              0.0000000000
      8199        66  DOPC      H9R            -1.4376876407      -34.0022543060        7.0658864445  MEMB      66              0.0000000000
      8200        66  DOPC      C210           -2.0778480809      -33.1997778321        5.2400018206  MEMB      66              0.0000000000
      8201        66  DOPC      H10R           -2.9921229580      -33.8081386876        5.2612534527  MEMB      66              0.0000000000
      8202        66  DOPC      C211           -1.9148729040      -32.2243241453        4.1220177702  MEMB      66              0.0000000000
      8203        66  DOPC      H11R           -0.9619212963      -32.4769568567        3.6094749366  MEMB      66              0.0000000000
      8204        66  DOPC      H11S           -1.7998371866      -31.1847772663        4.4980527311  MEMB      66              0.0000000000
      8205        66  DOPC      C212           -3.0524205463      -32.2927405915        3.1007827264  MEMB      66              0.0000000000
      8206        66  DOPC      H12R           -3.7404464768      -31.4376724210        3.2881314619  MEMB      66              0.0000000000
      8207        66  DOPC      H12S           -3.6635290319      -33.2170887785        3.1977356130  MEMB      66              0.0000000000
      8208        66  DOPC      C213           -2.5356676326      -32.2301674010        1.6600711605  MEMB      66              0.0000000000
      8209        66  DOPC      H13R           -1.9093232153      -31.3232740207        1.5232022824  MEMB      66              0.0000000000
      8210        66  DOPC      H13S           -3.4316298292      -32.1268147757        1.0219483120  MEMB      66              0.0000000000
      8211        66  DOPC      C214           -1.7545679032      -33.4718954490        1.1992087024  MEMB      66              0.0000000000
      8212        66  DOPC      H14R           -2.3560392343      -34.3898640855        1.3674140337  MEMB      66              0.0000000000
      8213        66  DOPC      H14S           -0.8186846870      -33.5735113454        1.7942421580  MEMB      66              0.0000000000
      8214        66  DOPC      C215           -1.3646878706      -33.4205743428       -0.2847067303  MEMB      66              0.0000000000
      8215        66  DOPC      H15R           -0.6842156438      -34.2639210236       -0.4616659403  MEMB      66              0.0000000000
      8216        66  DOPC      H15S           -0.8008568560      -32.4851388126       -0.4806189802  MEMB      66              0.0000000000
      8217        66  DOPC      C216           -2.5341488326      -33.5416364513       -1.2681882647  MEMB      66              0.0000000000
      8218        66  DOPC      H16R           -2.3281031420      -32.9481794006       -2.1875278288  MEMB      66              0.0000000000
      8219        66  DOPC      H16S           -3.4182997460      -33.0881819491       -0.7828290604  MEMB      66              0.0000000000
      8220        66  DOPC      C217           -2.9116904526      -34.9807440070       -1.6598944323  MEMB      66              0.0000000000
      8221        66  DOPC      H17R           -3.9385554290      -34.9528409125       -2.0824219940  MEMB      66              0.0000000000
      8222        66  DOPC      H17S           -2.9456771248      -35.6076008075       -0.7424494093  MEMB      66              0.0000000000
      8223        66  DOPC      C218           -2.0010772791      -35.6419390997       -2.6923417133  MEMB      66              0.0000000000
      8224        66  DOPC      H18R           -2.5059871500      -36.4647318901       -3.2367870233  MEMB      66              0.0000000000
      8225        66  DOPC      H18S           -1.1375326123      -36.0935411082       -2.1670481482  MEMB      66              0.0000000000
      8226        66  DOPC      H18T           -1.6359002639      -34.8936919292       -3.4314345710  MEMB      66              0.0000000000
      8227        66  DOPC      C33             1.4445864668      -38.8248673155        9.0857164618  MEMB      66              0.0000000000
      8228        66  DOPC      H3X             1.7892774975      -39.5178443557        8.2862811043  MEMB      66              0.0000000000
      8229        66  DOPC      H3Y             2.2587879541      -38.0865691313        9.2631447619  MEMB      66              0.0000000000
      8230        66  DOPC      C34             0.1716167156      -38.0915745968        8.6047397748  MEMB      66              0.0000000000
      8231        66  DOPC      H4X            -0.1555825763      -37.3592649496        9.3759745466  MEMB      66              0.0000000000
      8232        66  DOPC      H4Y            -0.6428080305      -38.8443223499        8.5014580173  MEMB      66              0.0000000000
      8233        66  DOPC      C35             0.2991200194      -37.3117226203        7.2821587224  MEMB      66              0.0000000000
      8234        66  DOPC      H5X            -0.6469013791      -36.7524443031        7.1118693057  MEMB      66              0.0000000000
      8235        66  DOPC      H5Y             0.4248863826      -38.0392215996        6.4514376198  MEMB      66              0.0000000000
      8236        66  DOPC      C36             1.4521520784      -36.3021409131        7.2444631268  MEMB      66              0.0000000000
      8237        66  DOPC      H6X             1.3060743959      -35.5109002229        8.0054786867  MEMB      66              0.0000000000
      8238        66  DOPC      H6Y             2.3684437544      -36.8588335260        7.4946504423  MEMB      66              0.0000000000
      8239        66  DOPC      C37             1.7280667013      -35.6931359916        5.8644605089  MEMB      66              0.0000000000
      8240        66  DOPC      H7X             1.7850288533      -36.5363304567        5.1374813347  MEMB      66              0.0000000000
      8241        66  DOPC      H7Y             0.8879475522      -35.0395561889        5.5497709197  MEMB      66              0.0000000000
      8242        66  DOPC      C38             3.0821342107      -34.9467300664        5.7943807080  MEMB      66              0.0000000000
      8243        66  DOPC      H8X             3.4233762385      -35.0259837163        4.7368132622  MEMB      66              0.0000000000
      8244        66  DOPC      H8Y             3.8355290770      -35.4781775522        6.3974699704  MEMB      66              0.0000000000
      8245        66  DOPC      C39             3.0462253892      -33.5307213576        6.2785144568  MEMB      66              0.0000000000
      8246        66  DOPC      H9X             2.9682269194      -33.3910834153        7.3663202140  MEMB      66              0.0000000000
      8247        66  DOPC      C310            3.0916023466      -32.4646583488        5.4753801031  MEMB      66              0.0000000000
      8248        66  DOPC      H10X            2.8839915978      -31.4720280022        5.8940500660  MEMB      66              0.0000000000
      8249        66  DOPC      C311            3.1924828341      -32.5599355485        3.9832501484  MEMB      66              0.0000000000
      8250        66  DOPC      H11X            4.0098047872      -33.2657017289        3.7485367742  MEMB      66              0.0000000000
      8251        66  DOPC      H11Y            3.5379247783      -31.5974382583        3.5587245889  MEMB      66              0.0000000000
      8252        66  DOPC      C312            1.9468996019      -33.0718578136        3.2295739088  MEMB      66              0.0000000000
      8253        66  DOPC      H12X            1.1908096505      -32.2692061662        3.1190221358  MEMB      66              0.0000000000
      8254        66  DOPC      H12Y            1.4602152243      -33.9072026540        3.7738532055  MEMB      66              0.0000000000
      8255        66  DOPC      C313            2.3371304818      -33.5538505231        1.8326171548  MEMB      66              0.0000000000
      8256        66  DOPC      H13X            3.1321694947      -34.3186273582        1.9433118804  MEMB      66              0.0000000000
      8257        66  DOPC      H13Y            1.4693554309      -34.0398901513        1.3364757446  MEMB      66              0.0000000000
      8258        66  DOPC      C314            2.8602534605      -32.3796246220        1.0017321698  MEMB      66              0.0000000000
      8259        66  DOPC      H14X            2.0493783726      -31.6199139966        0.9555455238  MEMB      66              0.0000000000
      8260        66  DOPC      H14Y            3.7333715392      -31.9336599214        1.5257689741  MEMB      66              0.0000000000
      8261        66  DOPC      C315            3.3399692600      -32.7089241186       -0.4127730090  MEMB      66              0.0000000000
      8262        66  DOPC      H15X            3.9931848170      -33.6039190721       -0.3767763450  MEMB      66              0.0000000000
      8263        66  DOPC      H15Y            3.9738768495      -31.8666147248       -0.7686381819  MEMB      66              0.0000000000
      8264        66  DOPC      C316            2.1765432126      -32.8822816652       -1.3872354304  MEMB      66              0.0000000000
      8265        66  DOPC      H16X            1.2569877003      -33.0022054931       -0.7726814887  MEMB      66              0.0000000000
      8266        66  DOPC      H16Y            2.0094522092      -31.9567539444       -1.9716597154  MEMB      66              0.0000000000
      8267        66  DOPC      C317            2.2903868551      -34.1045949889       -2.3009135102  MEMB      66              0.0000000000
      8268        66  DOPC      H17X            2.2816032714      -33.7926019990       -3.3703574770  MEMB      66              0.0000000000
      8269        66  DOPC      H17Y            3.2348447406      -34.6570637585       -2.1192828242  MEMB      66              0.0000000000
      8270        66  DOPC      C318            1.1133966349      -35.0280711121       -2.0592826918  MEMB      66              0.0000000000
      8271        66  DOPC      H18X            0.9336601826      -35.1768464362       -0.9767423573  MEMB      66              0.0000000000
      8272        66  DOPC      H18Y            0.2354376925      -34.5277556568       -2.5165434657  MEMB      66              0.0000000000
      8273        66  DOPC      H18Z            1.2136608487      -36.0415919699       -2.4816765989  MEMB      66              0.0000000000
      8274        67  DOPC      N             -25.3941934826       26.5781777705       18.8949198608  MEMB      67              0.0000000000
      8275        67  DOPC      C12           -25.2777042748       25.4226851007       17.9189732797  MEMB      67              0.0000000000
      8276        67  DOPC      H12A          -24.3301196758       24.9073960590       18.0928840582  MEMB      67              0.0000000000
      8277        67  DOPC      H12B          -25.3024672398       25.8054036659       16.9076200103  MEMB      67              0.0000000000
      8278        67  DOPC      C13           -26.8244425008       27.0084404517       18.9308728894  MEMB      67              0.0000000000
      8279        67  DOPC      H13A          -27.1499631860       27.3812082777       17.9703285079  MEMB      67              0.0000000000
      8280        67  DOPC      H13B          -27.4260184011       26.1351346362       19.2003267563  MEMB      67              0.0000000000
      8281        67  DOPC      H13C          -26.9841925868       27.7541393723       19.6987192732  MEMB      67              0.0000000000
      8282        67  DOPC      C14           -24.5282054632       27.7540187572       18.6016030352  MEMB      67              0.0000000000
      8283        67  DOPC      H14A          -24.8983109918       28.2594777018       17.7182602544  MEMB      67              0.0000000000
      8284        67  DOPC      H14B          -24.5541105475       28.4609839842       19.4283887185  MEMB      67              0.0000000000
      8285        67  DOPC      H14C          -23.4912446989       27.4881930541       18.4327092443  MEMB      67              0.0000000000
      8286        67  DOPC      C15           -25.0873551761       26.0366576954       20.2412299991  MEMB      67              0.0000000000
      8287        67  DOPC      H15A          -25.3454063591       26.7366967568       21.0275111967  MEMB      67              0.0000000000
      8288        67  DOPC      H15B          -24.0805892400       25.6490762449       20.3202310200  MEMB      67              0.0000000000
      8289        67  DOPC      H15C          -25.7462341067       25.1753356200       20.4143711914  MEMB      67              0.0000000000
      8290        67  DOPC      C11           -26.3539207136       24.2980719552       18.0062931042  MEMB      67              0.0000000000
      8291        67  DOPC      H11A          -27.3434182032       24.7096243070       17.7060975783  MEMB      67              0.0000000000
      8292        67  DOPC      H11B          -26.1348144317       23.4822618319       17.2773062028  MEMB      67              0.0000000000
      8293        67  DOPC      P             -25.5068298072       22.6131746937       19.8661497809  MEMB      67              0.0000000000
      8294        67  DOPC      O13           -25.6651724478       21.3972764943       19.0560698719  MEMB      67              0.0000000000
      8295        67  DOPC      O14           -25.7214889377       22.5320972842       21.3278497336  MEMB      67              0.0000000000
      8296        67  DOPC      O12           -26.4637186413       23.7738311221       19.3186198398  MEMB      67              0.0000000000
      8297        67  DOPC      O11           -24.0266983935       23.1839512962       19.6215518501  MEMB      67              0.0000000000
      8298        67  DOPC      C1            -22.8904431895       22.3150356042       19.3441701766  MEMB      67              0.0000000000
      8299        67  DOPC      HA            -23.2058130235       21.2903292935       19.0801786620  MEMB      67              0.0000000000
      8300        67  DOPC      HB            -22.2877997256       22.2152119225       20.2739454437  MEMB      67              0.0000000000
      8301        67  DOPC      C2            -21.9505428800       22.8731663978       18.2047838252  MEMB      67              0.0000000000
      8302        67  DOPC      HS            -21.2790032561       23.6296551388       18.6465160078  MEMB      67              0.0000000000
      8303        67  DOPC      O21           -22.9479271568       23.5565547996       17.3687206466  MEMB      67              0.0000000000
      8304        67  DOPC      C21           -22.6100768380       24.3116432934       16.3396687172  MEMB      67              0.0000000000
      8305        67  DOPC      O22           -21.4948173354       24.7621780253       16.1953722900  MEMB      67              0.0000000000
      8306        67  DOPC      C22           -23.7961918997       24.4687299846       15.3160023612  MEMB      67              0.0000000000
      8307        67  DOPC      H2R           -24.7723160549       24.3360987872       15.7930864706  MEMB      67              0.0000000000
      8308        67  DOPC      H2S           -23.7309704534       23.6326962754       14.6110380462  MEMB      67              0.0000000000
      8309        67  DOPC      C3            -20.9355644020       21.7554262266       17.4155332325  MEMB      67              0.0000000000
      8310        67  DOPC      HX            -20.4437821889       21.1854029905       18.2255105505  MEMB      67              0.0000000000
      8311        67  DOPC      HY            -20.1963270151       22.4375709663       16.9713383282  MEMB      67              0.0000000000
      8312        67  DOPC      O31           -21.3357374809       20.7605693175       16.4175653315  MEMB      67              0.0000000000
      8313        67  DOPC      C31           -20.7981222373       19.6889765649       15.7552931860  MEMB      67              0.0000000000
      8314        67  DOPC      O32           -19.6137865547       19.5041515699       15.6233598416  MEMB      67              0.0000000000
      8315        67  DOPC      C32           -21.9020809503       18.6267701447       15.1175645903  MEMB      67              0.0000000000
      8316        67  DOPC      H2X           -21.1627503448       17.8678919906       14.8503692080  MEMB      67              0.0000000000
      8317        67  DOPC      H2Y           -22.4819371753       18.1745906302       15.9199368941  MEMB      67              0.0000000000
      8318        67  DOPC      C23           -23.7787697025       25.5918484199       14.2464106809  MEMB      67              0.0000000000
      8319        67  DOPC      H3R           -22.8416623061       25.4782158038       13.6485154802  MEMB      67              0.0000000000
      8320        67  DOPC      H3S           -23.7603369756       26.5864192149       14.7269271918  MEMB      67              0.0000000000
      8321        67  DOPC      C24           -24.9660731655       25.5106729719       13.2503985730  MEMB      67              0.0000000000
      8322        67  DOPC      H4R           -25.9293389260       25.5484913082       13.8047596372  MEMB      67              0.0000000000
      8323        67  DOPC      H4S           -24.9404882464       24.5497539990       12.6864273642  MEMB      67              0.0000000000
      8324        67  DOPC      C25           -24.9233389991       26.6665184008       12.2363364451  MEMB      67              0.0000000000
      8325        67  DOPC      H5R           -23.9924348357       26.5925545464       11.6317731257  MEMB      67              0.0000000000
      8326        67  DOPC      H5S           -24.8623154986       27.6152878350       12.8155307662  MEMB      67              0.0000000000
      8327        67  DOPC      C26           -26.1316568153       26.8261734997       11.2925486873  MEMB      67              0.0000000000
      8328        67  DOPC      H6R           -25.8926531530       27.6755940140       10.6188379478  MEMB      67              0.0000000000
      8329        67  DOPC      H6S           -27.0166890220       27.1176401969       11.8985544439  MEMB      67              0.0000000000
      8330        67  DOPC      C27           -26.5105439840       25.6302677021       10.4040574490  MEMB      67              0.0000000000
      8331        67  DOPC      H7R           -27.3986401564       25.8984461788        9.7864265733  MEMB      67              0.0000000000
      8332        67  DOPC      H7S           -26.8194535762       24.7951959411       11.0648876453  MEMB      67              0.0000000000
      8333        67  DOPC      C28           -25.3892198356       25.1416165695        9.4736768520  MEMB      67              0.0000000000
      8334        67  DOPC      H8R           -25.7289385770       24.1884741917        9.0053926619  MEMB      67              0.0000000000
      8335        67  DOPC      H8S           -24.5056766972       24.8926613382       10.1054109101  MEMB      67              0.0000000000
      8336        67  DOPC      C29           -25.0134541795       26.1224961725        8.3907552827  MEMB      67              0.0000000000
      8337        67  DOPC      H9R           -25.6423113930       27.0225942149        8.2937338326  MEMB      67              0.0000000000
      8338        67  DOPC      C210          -23.9658975857       25.9427963999        7.5692364294  MEMB      67              0.0000000000
      8339        67  DOPC      H10R          -23.7382434468       26.6975288876        6.7985035752  MEMB      67              0.0000000000
      8340        67  DOPC      C211          -23.0441652225       24.7481332454        7.6267606463  MEMB      67              0.0000000000
      8341        67  DOPC      H11R          -23.4127062157       23.9689132167        8.3315933545  MEMB      67              0.0000000000
      8342        67  DOPC      H11S          -22.0449139810       25.0660527070        8.0020129637  MEMB      67              0.0000000000
      8343        67  DOPC      C212          -22.8571642155       24.0450226635        6.2724777719  MEMB      67              0.0000000000
      8344        67  DOPC      H12R          -23.8322085524       23.7202055164        5.8486232876  MEMB      67              0.0000000000
      8345        67  DOPC      H12S          -22.2429640637       23.1329745142        6.4566233193  MEMB      67              0.0000000000
      8346        67  DOPC      C213          -22.1097491404       24.9134064661        5.2669541753  MEMB      67              0.0000000000
      8347        67  DOPC      H13R          -21.3964022718       25.5380396236        5.8418192382  MEMB      67              0.0000000000
      8348        67  DOPC      H13S          -22.8140229171       25.5956533783        4.7392357110  MEMB      67              0.0000000000
      8349        67  DOPC      C214          -21.2789178293       24.1142942661        4.2636376977  MEMB      67              0.0000000000
      8350        67  DOPC      H14R          -20.4586169717       23.5806217326        4.7935346101  MEMB      67              0.0000000000
      8351        67  DOPC      H14S          -20.8013905407       24.8330606187        3.5604196693  MEMB      67              0.0000000000
      8352        67  DOPC      C215          -22.0956907129       23.1081104691        3.4537896583  MEMB      67              0.0000000000
      8353        67  DOPC      H15R          -23.0600298677       23.5739106940        3.1560167372  MEMB      67              0.0000000000
      8354        67  DOPC      H15S          -22.3309370926       22.2135359081        4.0715899386  MEMB      67              0.0000000000
      8355        67  DOPC      C216          -21.3181433504       22.7041342341        2.2046714501  MEMB      67              0.0000000000
      8356        67  DOPC      H16R          -20.5985459371       21.9101291060        2.4746773692  MEMB      67              0.0000000000
      8357        67  DOPC      H16S          -20.7160353083       23.5699875608        1.8470184698  MEMB      67              0.0000000000
      8358        67  DOPC      C217          -22.1760899685       22.2147115317        1.0428112717  MEMB      67              0.0000000000
      8359        67  DOPC      H17R          -22.9005720796       22.9982344006        0.7352146966  MEMB      67              0.0000000000
      8360        67  DOPC      H17S          -22.7543008562       21.3221545318        1.3734446704  MEMB      67              0.0000000000
      8361        67  DOPC      C218          -21.2720484065       21.8489660905       -0.1272017448  MEMB      67              0.0000000000
      8362        67  DOPC      H18R          -20.6334970312       22.7067803055       -0.4265326629  MEMB      67              0.0000000000
      8363        67  DOPC      H18S          -21.8235459404       21.4811556378       -1.0119853687  MEMB      67              0.0000000000
      8364        67  DOPC      H18T          -20.6065696679       21.0418013076        0.2153736683  MEMB      67              0.0000000000
      8365        67  DOPC      C33           -22.8076739004       18.5652727052       13.7519130314  MEMB      67              0.0000000000
      8366        67  DOPC      H3X           -22.7664237047       17.5042794843       13.4159810073  MEMB      67              0.0000000000
      8367        67  DOPC      H3Y           -22.3533354814       19.1586945392       12.9523430102  MEMB      67              0.0000000000
      8368        67  DOPC      C34           -24.3455672414       18.8750310222       13.7357444869  MEMB      67              0.0000000000
      8369        67  DOPC      H4X           -24.4478694554       19.6619334771       14.4365621659  MEMB      67              0.0000000000
      8370        67  DOPC      H4Y           -24.8879932432       18.1296534157       14.3296622023  MEMB      67              0.0000000000
      8371        67  DOPC      C35           -25.1110469883       19.6671171394       12.5905658786  MEMB      67              0.0000000000
      8372        67  DOPC      H5X           -25.5741790661       19.0475274072       11.8068844115  MEMB      67              0.0000000000
      8373        67  DOPC      H5Y           -24.3887768438       20.3272343327       12.0647482661  MEMB      67              0.0000000000
      8374        67  DOPC      C36           -26.2003178983       20.6031419702       13.2473504908  MEMB      67              0.0000000000
      8375        67  DOPC      H6X           -26.4694022915       20.1027898493       14.2018085211  MEMB      67              0.0000000000
      8376        67  DOPC      H6Y           -25.6655058774       21.5368088606       13.5048682539  MEMB      67              0.0000000000
      8377        67  DOPC      C37           -27.5732313670       21.0436330628       12.6399722995  MEMB      67              0.0000000000
      8378        67  DOPC      H7X           -28.3411147973       20.2429975994       12.5859144201  MEMB      67              0.0000000000
      8379        67  DOPC      H7Y           -28.0005904102       21.7717847934       13.3713597785  MEMB      67              0.0000000000
      8380        67  DOPC      C38           -27.4740326466       21.7730251488       11.3010768470  MEMB      67              0.0000000000
      8381        67  DOPC      H8X           -26.6232650548       21.2871746011       10.7820075991  MEMB      67              0.0000000000
      8382        67  DOPC      H8Y           -27.1598135069       22.8148534387       11.5120447557  MEMB      67              0.0000000000
      8383        67  DOPC      C39           -28.7252101163       21.8001781054       10.4513499862  MEMB      67              0.0000000000
      8384        67  DOPC      H9X           -29.6895350727       21.9905319279       10.9548184848  MEMB      67              0.0000000000
      8385        67  DOPC      C310          -28.7174805080       21.5760196475        9.1298856342  MEMB      67              0.0000000000
      8386        67  DOPC      H10X          -29.6607310477       21.6228785023        8.5598706384  MEMB      67              0.0000000000
      8387        67  DOPC      C311          -27.4922071815       21.2650989958        8.3137756530  MEMB      67              0.0000000000
      8388        67  DOPC      H11X          -26.6937067316       20.7612511052        8.9036594452  MEMB      67              0.0000000000
      8389        67  DOPC      H11Y          -27.0517249749       22.1948224249        7.8926389530  MEMB      67              0.0000000000
      8390        67  DOPC      C312          -27.8938500950       20.2987972014        7.1996449451  MEMB      67              0.0000000000
      8391        67  DOPC      H12X          -28.7052026894       20.7387362996        6.5783891235  MEMB      67              0.0000000000
      8392        67  DOPC      H12Y          -28.3029791425       19.3698605540        7.6570434324  MEMB      67              0.0000000000
      8393        67  DOPC      C313          -26.7239533492       19.9276004380        6.2859520346  MEMB      67              0.0000000000
      8394        67  DOPC      H13X          -25.7483184831       20.1661395792        6.7663648562  MEMB      67              0.0000000000
      8395        67  DOPC      H13Y          -26.7787112489       18.8350211568        6.0917777372  MEMB      67              0.0000000000
      8396        67  DOPC      C314          -26.8529614325       20.6048687006        4.9381086912  MEMB      67              0.0000000000
      8397        67  DOPC      H14X          -27.5989748758       20.0218877260        4.3472736351  MEMB      67              0.0000000000
      8398        67  DOPC      H14Y          -27.2571566784       21.6309840175        5.1003016524  MEMB      67              0.0000000000
      8399        67  DOPC      C315          -25.5508619945       20.7386547848        4.1500265568  MEMB      67              0.0000000000
      8400        67  DOPC      H15X          -25.2338055999       19.7582022877        3.7435583095  MEMB      67              0.0000000000
      8401        67  DOPC      H15Y          -24.7404757902       21.1020181306        4.8214975431  MEMB      67              0.0000000000
      8402        67  DOPC      C316          -25.7294847409       21.7423139500        3.0103030989  MEMB      67              0.0000000000
      8403        67  DOPC      H16X          -25.6843957967       22.7629622705        3.4576131077  MEMB      67              0.0000000000
      8404        67  DOPC      H16Y          -24.8899598705       21.6614646678        2.2859023329  MEMB      67              0.0000000000
      8405        67  DOPC      C317          -27.0703501305       21.6153570151        2.2709267018  MEMB      67              0.0000000000
      8406        67  DOPC      H17X          -27.9466265328       21.5337835253        2.9451781981  MEMB      67              0.0000000000
      8407        67  DOPC      H17Y          -27.2274289268       22.5948713946        1.7957392274  MEMB      67              0.0000000000
      8408        67  DOPC      C318          -27.1008588255       20.4934256805        1.2301291303  MEMB      67              0.0000000000
      8409        67  DOPC      H18X          -28.0091857713       20.5709498179        0.5967055955  MEMB      67              0.0000000000
      8410        67  DOPC      H18Y          -26.2121162688       20.5517015237        0.5651547530  MEMB      67              0.0000000000
      8411        67  DOPC      H18Z          -27.1045041844       19.4986052543        1.7241018425  MEMB      67              0.0000000000
      8412        68  DOPC      N             -35.9684379397      -10.2826447845       19.3437845508  MEMB      68              0.0000000000
      8413        68  DOPC      C12           -35.1244940581      -11.1285039477       18.3851693629  MEMB      68              0.0000000000
      8414        68  DOPC      H12A          -35.7607279216      -11.4959122988       17.5917675561  MEMB      68              0.0000000000
      8415        68  DOPC      H12B          -34.7432500279      -12.0020534825       18.9098112679  MEMB      68              0.0000000000
      8416        68  DOPC      C13           -37.2163882375      -11.0286187033       19.6772754073  MEMB      68              0.0000000000
      8417        68  DOPC      H13A          -37.8285435837      -10.5024786877       20.3954915027  MEMB      68              0.0000000000
      8418        68  DOPC      H13B          -37.7939509303      -11.2137400161       18.7769338096  MEMB      68              0.0000000000
      8419        68  DOPC      H13C          -36.9555655159      -12.0022287674       20.0865209219  MEMB      68              0.0000000000
      8420        68  DOPC      C14           -36.2891801275       -8.9997030098       18.6626856819  MEMB      68              0.0000000000
      8421        68  DOPC      H14A          -35.3579690547       -8.5475257495       18.3308062669  MEMB      68              0.0000000000
      8422        68  DOPC      H14B          -36.8740736852       -9.1771769259       17.7601434399  MEMB      68              0.0000000000
      8423        68  DOPC      H14C          -36.8410368337       -8.3053680054       19.2824204586  MEMB      68              0.0000000000
      8424        68  DOPC      C15           -35.1772593164      -10.0064330808       20.5797817400  MEMB      68              0.0000000000
      8425        68  DOPC      H15A          -35.7019328996       -9.3992422523       21.2891146533  MEMB      68              0.0000000000
      8426        68  DOPC      H15B          -34.2519930009       -9.4821465142       20.3068772081  MEMB      68              0.0000000000
      8427        68  DOPC      H15C          -34.8225909623      -10.9222301154       21.0573738623  MEMB      68              0.0000000000
      8428        68  DOPC      C11           -33.8964361064      -10.4647950307       17.7037310291  MEMB      68              0.0000000000
      8429        68  DOPC      H11A          -33.4707068559      -11.1666654330       16.9478466318  MEMB      68              0.0000000000
      8430        68  DOPC      H11B          -34.2116945799       -9.5667207577       17.1314212641  MEMB      68              0.0000000000
      8431        68  DOPC      P             -32.0159988874      -11.1589081316       19.4083304229  MEMB      68              0.0000000000
      8432        68  DOPC      O13           -32.4629569399      -11.0996224049       20.8181660582  MEMB      68              0.0000000000
      8433        68  DOPC      O14           -30.5860411326      -10.9442326014       19.1313641022  MEMB      68              0.0000000000
      8434        68  DOPC      O12           -32.9028020502      -10.0816786654       18.6419934614  MEMB      68              0.0000000000
      8435        68  DOPC      O11           -32.5607802145      -12.5192042354       18.7777537207  MEMB      68              0.0000000000
      8436        68  DOPC      C1            -31.6709429595      -13.5503311047       18.3560411768  MEMB      68              0.0000000000
      8437        68  DOPC      HA            -31.7510391893      -14.3988208940       19.0665687435  MEMB      68              0.0000000000
      8438        68  DOPC      HB            -30.5932027916      -13.2394141968       18.3247204554  MEMB      68              0.0000000000
      8439        68  DOPC      C2            -32.0214723741      -14.0381593213       16.9311866362  MEMB      68              0.0000000000
      8440        68  DOPC      HS            -31.4290293937      -14.9723544893       16.7601330947  MEMB      68              0.0000000000
      8441        68  DOPC      O21           -31.7332248865      -12.9706283566       16.0076767981  MEMB      68              0.0000000000
      8442        68  DOPC      C21           -30.7186775360      -13.2341334362       15.2179623530  MEMB      68              0.0000000000
      8443        68  DOPC      O22           -30.1016647482      -14.2794981807       15.1668568191  MEMB      68              0.0000000000
      8444        68  DOPC      C22           -30.4352541103      -12.0668913374       14.3233605515  MEMB      68              0.0000000000
      8445        68  DOPC      H2R           -29.3455725995      -12.0653435943       14.1233787778  MEMB      68              0.0000000000
      8446        68  DOPC      H2S           -30.7314023824      -11.1062417159       14.7924007901  MEMB      68              0.0000000000
      8447        68  DOPC      C3            -33.4996352907      -14.4424872837       16.7516525145  MEMB      68              0.0000000000
      8448        68  DOPC      HX            -34.1541867600      -13.6211116918       17.1198175209  MEMB      68              0.0000000000
      8449        68  DOPC      HY            -33.6890786567      -15.3306762402       17.3932129799  MEMB      68              0.0000000000
      8450        68  DOPC      O31           -33.7457297868      -14.7943927785       15.3722814893  MEMB      68              0.0000000000
      8451        68  DOPC      C31           -34.1705263565      -13.7910817654       14.5966986665  MEMB      68              0.0000000000
      8452        68  DOPC      O32           -34.5336326808      -12.7003912085       14.9989543646  MEMB      68              0.0000000000
      8453        68  DOPC      C32           -34.1300575173      -14.1924942482       13.1207239059  MEMB      68              0.0000000000
      8454        68  DOPC      H2X           -33.0723955476      -14.3445389339       12.8339052257  MEMB      68              0.0000000000
      8455        68  DOPC      H2Y           -34.6463670456      -15.1628122619       13.0225750509  MEMB      68              0.0000000000
      8456        68  DOPC      C23           -31.1320980454      -12.2942153320       13.0053640658  MEMB      68              0.0000000000
      8457        68  DOPC      H3R           -32.2345823356      -12.2179743465       13.1409033300  MEMB      68              0.0000000000
      8458        68  DOPC      H3S           -30.9085318103      -13.3110807025       12.5904921527  MEMB      68              0.0000000000
      8459        68  DOPC      C24           -30.6789072951      -11.2456573240       12.0124003786  MEMB      68              0.0000000000
      8460        68  DOPC      H4R           -29.5753949337      -11.2988726616       11.8619744128  MEMB      68              0.0000000000
      8461        68  DOPC      H4S           -30.9575557662      -10.2405014296       12.3942470527  MEMB      68              0.0000000000
      8462        68  DOPC      C25           -31.4251138982      -11.5910926318       10.7590889347  MEMB      68              0.0000000000
      8463        68  DOPC      H5R           -32.5194036784      -11.4869992802       10.9452602353  MEMB      68              0.0000000000
      8464        68  DOPC      H5S           -31.2031603871      -12.6707282343       10.5699125644  MEMB      68              0.0000000000
      8465        68  DOPC      C26           -31.0919023875      -10.8531782335        9.4881113975  MEMB      68              0.0000000000
      8466        68  DOPC      H6R           -30.0094341549      -10.9466600033        9.2561594785  MEMB      68              0.0000000000
      8467        68  DOPC      H6S           -31.3504359669       -9.7789078761        9.5273186148  MEMB      68              0.0000000000
      8468        68  DOPC      C27           -31.9724519686      -11.5608072549        8.4739886380  MEMB      68              0.0000000000
      8469        68  DOPC      H7R           -33.0223391869      -11.2107941714        8.5558028293  MEMB      68              0.0000000000
      8470        68  DOPC      H7S           -32.0086132875      -12.6384135152        8.7362526563  MEMB      68              0.0000000000
      8471        68  DOPC      C28           -31.4394081131      -11.5422258162        7.0739033110  MEMB      68              0.0000000000
      8472        68  DOPC      H8R           -31.6063461039      -12.5597051609        6.6975208300  MEMB      68              0.0000000000
      8473        68  DOPC      H8S           -30.3363044801      -11.4278422313        7.0736670064  MEMB      68              0.0000000000
      8474        68  DOPC      C29           -32.0577849887      -10.4350779173        6.2839309555  MEMB      68              0.0000000000
      8475        68  DOPC      H9R           -31.2338837132       -9.7960853153        5.9395310512  MEMB      68              0.0000000000
      8476        68  DOPC      C210          -33.3272059354      -10.0103519450        6.0217289129  MEMB      68              0.0000000000
      8477        68  DOPC      H10R          -33.3567422608       -9.0512002539        5.4891972703  MEMB      68              0.0000000000
      8478        68  DOPC      C211          -34.7767435052      -10.3803456629        6.3419623420  MEMB      68              0.0000000000
      8479        68  DOPC      H11R          -35.1580572219       -9.8395792872        7.2380293743  MEMB      68              0.0000000000
      8480        68  DOPC      H11S          -34.9892694923      -11.4511255934        6.5325132169  MEMB      68              0.0000000000
      8481        68  DOPC      C212          -35.6105031042       -9.8509597896        5.1376689676  MEMB      68              0.0000000000
      8482        68  DOPC      H12R          -35.0021791768       -9.9270892541        4.2126953965  MEMB      68              0.0000000000
      8483        68  DOPC      H12S          -35.8076609707       -8.7635699863        5.2640299845  MEMB      68              0.0000000000
      8484        68  DOPC      C213          -36.9292279052      -10.5845635513        4.8430737844  MEMB      68              0.0000000000
      8485        68  DOPC      H13R          -37.7011180469      -10.2613450283        5.5775543725  MEMB      68              0.0000000000
      8486        68  DOPC      H13S          -36.7842417035      -11.6782886659        4.9724646085  MEMB      68              0.0000000000
      8487        68  DOPC      C214          -37.4631212985      -10.3557926673        3.4100395473  MEMB      68              0.0000000000
      8488        68  DOPC      H14R          -37.8098075323       -9.2995414721        3.3357526348  MEMB      68              0.0000000000
      8489        68  DOPC      H14S          -38.3718459639      -10.9854484250        3.2706105355  MEMB      68              0.0000000000
      8490        68  DOPC      C215          -36.4752403473      -10.6201472911        2.2375662484  MEMB      68              0.0000000000
      8491        68  DOPC      H15R          -35.8563981981       -9.7102324539        2.0921989197  MEMB      68              0.0000000000
      8492        68  DOPC      H15S          -37.0928446547      -10.7313206840        1.3157725673  MEMB      68              0.0000000000
      8493        68  DOPC      C216          -35.5112326950      -11.8356034157        2.3691739757  MEMB      68              0.0000000000
      8494        68  DOPC      H16R          -36.0745333813      -12.7000026255        2.7768071160  MEMB      68              0.0000000000
      8495        68  DOPC      H16S          -34.7230632521      -11.6217795292        3.1138027369  MEMB      68              0.0000000000
      8496        68  DOPC      C217          -34.8094322309      -12.2387051100        1.0417584559  MEMB      68              0.0000000000
      8497        68  DOPC      H17R          -33.9058725012      -11.5889065144        0.9636080403  MEMB      68              0.0000000000
      8498        68  DOPC      H17S          -35.4699571679      -12.0109745973        0.1819780330  MEMB      68              0.0000000000
      8499        68  DOPC      C218          -34.3537396789      -13.6971902825        0.9061925631  MEMB      68              0.0000000000
      8500        68  DOPC      H18R          -34.7566369485      -14.2988699978        1.7438428805  MEMB      68              0.0000000000
      8501        68  DOPC      H18S          -33.2503528375      -13.7330157228        0.8703121833  MEMB      68              0.0000000000
      8502        68  DOPC      H18T          -34.6269003134      -14.2859199731        0.0425432968  MEMB      68              0.0000000000
      8503        68  DOPC      C33           -34.7802978361      -13.1053873413       12.2220122325  MEMB      68              0.0000000000
      8504        68  DOPC      H3X           -34.3374348255      -12.1126354229       12.4753165937  MEMB      68              0.0000000000
      8505        68  DOPC      H3Y           -35.8718819736      -13.0300973153       12.4247903699  MEMB      68              0.0000000000
      8506        68  DOPC      C34           -34.5934581525      -13.2953559593       10.7122298745  MEMB      68              0.0000000000
      8507        68  DOPC      H4X           -33.5218167628      -13.3700718002       10.4417401336  MEMB      68              0.0000000000
      8508        68  DOPC      H4Y           -34.9886820682      -12.3714636594       10.2202992127  MEMB      68              0.0000000000
      8509        68  DOPC      C35           -35.3466636947      -14.4789810475       10.0950230536  MEMB      68              0.0000000000
      8510        68  DOPC      H5X           -35.4783116678      -14.1820299076        9.0268806712  MEMB      68              0.0000000000
      8511        68  DOPC      H5Y           -36.3548469175      -14.5918140493       10.5456429467  MEMB      68              0.0000000000
      8512        68  DOPC      C36           -34.5727973240      -15.8066814791       10.1274002568  MEMB      68              0.0000000000
      8513        68  DOPC      H6X           -33.6177023922      -15.6396871794        9.6023709410  MEMB      68              0.0000000000
      8514        68  DOPC      H6Y           -34.3133371345      -16.0905677541       11.1684867004  MEMB      68              0.0000000000
      8515        68  DOPC      C37           -35.2941049251      -16.9825460257        9.4456342145  MEMB      68              0.0000000000
      8516        68  DOPC      H7X           -34.5824794243      -17.8399044870        9.3628788521  MEMB      68              0.0000000000
      8517        68  DOPC      H7Y           -36.0930131148      -17.3364377173       10.1348311303  MEMB      68              0.0000000000
      8518        68  DOPC      C38           -35.9180439253      -16.6267875578        8.0671094049  MEMB      68              0.0000000000
      8519        68  DOPC      H8X           -36.3767977275      -15.6262200959        8.0585234307  MEMB      68              0.0000000000
      8520        68  DOPC      H8Y           -36.7693145014      -17.3297230314        7.9201327633  MEMB      68              0.0000000000
      8521        68  DOPC      C39           -34.9038869430      -16.7904947742        6.9633185020  MEMB      68              0.0000000000
      8522        68  DOPC      H9X           -34.5498140803      -17.8269158148        6.9821677234  MEMB      68              0.0000000000
      8523        68  DOPC      C310          -34.4508032995      -16.0186264290        5.9367817751  MEMB      68              0.0000000000
      8524        68  DOPC      H10X          -33.7162164436      -16.4981801548        5.2745626486  MEMB      68              0.0000000000
      8525        68  DOPC      C311          -34.7929935685      -14.6284128854        5.4524796677  MEMB      68              0.0000000000
      8526        68  DOPC      H11X          -35.6136766743      -14.2545869956        6.1071671019  MEMB      68              0.0000000000
      8527        68  DOPC      H11Y          -35.2433340506      -14.7394696277        4.4418215616  MEMB      68              0.0000000000
      8528        68  DOPC      C312          -33.8254735966      -13.3884589007        5.3639665676  MEMB      68              0.0000000000
      8529        68  DOPC      H12X          -33.6060418085      -13.0762676214        6.4037861142  MEMB      68              0.0000000000
      8530        68  DOPC      H12Y          -34.4932434791      -12.6144551343        4.9237583622  MEMB      68              0.0000000000
      8531        68  DOPC      C313          -32.5293739402      -13.2052667658        4.5056902441  MEMB      68              0.0000000000
      8532        68  DOPC      H13X          -32.5065990252      -12.1394962753        4.1784054194  MEMB      68              0.0000000000
      8533        68  DOPC      H13Y          -31.5652727180      -13.3537261756        5.0241281267  MEMB      68              0.0000000000
      8534        68  DOPC      C314          -32.3459229356      -14.0597146246        3.2923564921  MEMB      68              0.0000000000
      8535        68  DOPC      H14X          -32.1732600687      -15.0951712377        3.5791514143  MEMB      68              0.0000000000
      8536        68  DOPC      H14Y          -33.3427446701      -14.1183996840        2.9133545858  MEMB      68              0.0000000000
      8537        68  DOPC      C315          -31.2669065168      -13.4730302685        2.3588527141  MEMB      68              0.0000000000
      8538        68  DOPC      H15X          -30.4467562818      -13.0429923295        2.9863227740  MEMB      68              0.0000000000
      8539        68  DOPC      H15Y          -31.6941790291      -12.5952709756        1.8257395073  MEMB      68              0.0000000000
      8540        68  DOPC      C316          -30.5774703288      -14.4778763980        1.4052848179  MEMB      68              0.0000000000
      8541        68  DOPC      H16X          -30.2296428501      -13.9357040423        0.5092427044  MEMB      68              0.0000000000
      8542        68  DOPC      H16Y          -29.6533556507      -14.8251928156        1.9031611339  MEMB      68              0.0000000000
      8543        68  DOPC      C317          -31.3376521021      -15.7595216572        1.0174037981  MEMB      68              0.0000000000
      8544        68  DOPC      H17X          -31.7183535619      -16.2525557217        1.9345292399  MEMB      68              0.0000000000
      8545        68  DOPC      H17Y          -32.2106271111      -15.5066603548        0.3822850396  MEMB      68              0.0000000000
      8546        68  DOPC      C318          -30.4669932196      -16.7961490214        0.2962644846  MEMB      68              0.0000000000
      8547        68  DOPC      H18X          -29.9333889878      -17.4438322410        1.0240951170  MEMB      68              0.0000000000
      8548        68  DOPC      H18Y          -31.0805903961      -17.4498602973       -0.3596062603  MEMB      68              0.0000000000
      8549        68  DOPC      H18Z          -29.7022974158      -16.2828456438       -0.3124763152  MEMB      68              0.0000000000
      8550        69  DOPE      N              36.9121131856       -7.3161144934       21.0562572585  MEMB      69              0.0000000000
      8551        69  DOPE      HN1            36.4039947684       -6.4767795444       21.4202858210  MEMB      69              0.0000000000
      8552        69  DOPE      HN2            37.2596606284       -7.9006739790       21.8442799504  MEMB      69              0.0000000000
      8553        69  DOPE      HN3            37.7365801578       -6.9641629160       20.5146636683  MEMB      69              0.0000000000
      8554        69  DOPE      C12            35.9143304707       -8.0607983242       20.2172230142  MEMB      69              0.0000000000
      8555        69  DOPE      H12A           35.2552927555       -8.6104405448       20.9191028970  MEMB      69              0.0000000000
      8556        69  DOPE      H12B           36.4627829953       -8.7713305866       19.5697499562  MEMB      69              0.0000000000
      8557        69  DOPE      C11            35.0646116800       -7.1068313288       19.3766757558  MEMB      69              0.0000000000
      8558        69  DOPE      H11A           34.0411277556       -7.5203730703       19.2316001480  MEMB      69              0.0000000000
      8559        69  DOPE      H11B           35.5464839054       -7.0689540901       18.3660723303  MEMB      69              0.0000000000
      8560        69  DOPE      P              34.8854937855       -4.5912947920       18.9862611313  MEMB      69              0.0000000000
      8561        69  DOPE      O13            34.7780462704       -3.3715824363       19.8203376294  MEMB      69              0.0000000000
      8562        69  DOPE      O14            33.8357685774       -4.9315218974       18.0022840622  MEMB      69              0.0000000000
      8563        69  DOPE      O11            36.3174726742       -4.7668666942       18.4191625336  MEMB      69              0.0000000000
      8564        69  DOPE      O12            34.9688126364       -5.8179829809       20.0029086501  MEMB      69              0.0000000000
      8565        69  DOPE      C1             37.5025189308       -4.4352282274       19.1059443046  MEMB      69              0.0000000000
      8566        69  DOPE      HA             37.6205431955       -5.0043620092       20.0478059205  MEMB      69              0.0000000000
      8567        69  DOPE      HB             37.5341386607       -3.3528412878       19.3713575986  MEMB      69              0.0000000000
      8568        69  DOPE      C2             38.6008627905       -4.7861996417       18.0992704005  MEMB      69              0.0000000000
      8569        69  DOPE      HS             39.5949245969       -4.5348889349       18.5363997300  MEMB      69              0.0000000000
      8570        69  DOPE      O21            38.3769357675       -4.0242055394       16.8958225464  MEMB      69              0.0000000000
      8571        69  DOPE      C21            38.5950015720       -2.7182184872       17.0420795393  MEMB      69              0.0000000000
      8572        69  DOPE      O22            39.1266932075       -2.1931389003       18.0045110441  MEMB      69              0.0000000000
      8573        69  DOPE      C22            38.2903913060       -1.9735538459       15.7688582578  MEMB      69              0.0000000000
      8574        69  DOPE      H2R            39.1737411684       -2.0622449963       15.1023923932  MEMB      69              0.0000000000
      8575        69  DOPE      H2S            38.1916450669       -0.9071625329       16.0636301424  MEMB      69              0.0000000000
      8576        69  DOPE      C3             38.6151171790       -6.3275657798       17.7827404562  MEMB      69              0.0000000000
      8577        69  DOPE      HX             38.4573319367       -6.8568285856       18.7385702828  MEMB      69              0.0000000000
      8578        69  DOPE      HY             39.6176247247       -6.5928634599       17.3832303689  MEMB      69              0.0000000000
      8579        69  DOPE      O31            37.5827723179       -6.7320513397       16.8708663169  MEMB      69              0.0000000000
      8580        69  DOPE      C31            37.5357639516       -7.9949383670       16.4861489837  MEMB      69              0.0000000000
      8581        69  DOPE      O32            38.1637516293       -8.9133451954       16.9960551331  MEMB      69              0.0000000000
      8582        69  DOPE      C32            36.3783890369       -8.1416799313       15.5007231165  MEMB      69              0.0000000000
      8583        69  DOPE      H2X            35.5489182617       -8.6079532226       16.0695271477  MEMB      69              0.0000000000
      8584        69  DOPE      H2Y            36.0414691642       -7.1267354217       15.1931995608  MEMB      69              0.0000000000
      8585        69  DOPE      C23            36.9958693943       -2.4697427556       15.1064520540  MEMB      69              0.0000000000
      8586        69  DOPE      H3R            36.3245461308       -1.5989971978       15.0531207049  MEMB      69              0.0000000000
      8587        69  DOPE      H3S            36.4383576637       -3.2248084589       15.7049823023  MEMB      69              0.0000000000
      8588        69  DOPE      C24            37.2377115120       -2.9653796793       13.6926281025  MEMB      69              0.0000000000
      8589        69  DOPE      H4R            38.0616365384       -3.6985792405       13.6920929969  MEMB      69              0.0000000000
      8590        69  DOPE      H4S            37.5895452415       -2.0671057058       13.1350334850  MEMB      69              0.0000000000
      8591        69  DOPE      C25            35.9915163830       -3.5258839925       12.9957608400  MEMB      69              0.0000000000
      8592        69  DOPE      H5R            35.1155401788       -3.1118517668       13.5459200267  MEMB      69              0.0000000000
      8593        69  DOPE      H5S            35.9258468415       -4.6353031491       13.0958734697  MEMB      69              0.0000000000
      8594        69  DOPE      C26            35.9277791448       -3.0471154185       11.5300691615  MEMB      69              0.0000000000
      8595        69  DOPE      H6R            36.3428636299       -3.8081372702       10.8383079658  MEMB      69              0.0000000000
      8596        69  DOPE      H6S            36.5735912363       -2.1454081768       11.4407884607  MEMB      69              0.0000000000
      8597        69  DOPE      C27            34.5421901426       -2.5507558334       11.1108447746  MEMB      69              0.0000000000
      8598        69  DOPE      H7R            34.2923412469       -1.6820110072       11.7588126141  MEMB      69              0.0000000000
      8599        69  DOPE      H7S            33.8145488365       -3.3671005163       11.3142492376  MEMB      69              0.0000000000
      8600        69  DOPE      C28            34.3847641690       -2.1168910409        9.6322112813  MEMB      69              0.0000000000
      8601        69  DOPE      H8R            33.3542799081       -1.7177537835        9.5091003386  MEMB      69              0.0000000000
      8602        69  DOPE      H8S            34.4158898723       -3.0439558044        9.0222115287  MEMB      69              0.0000000000
      8603        69  DOPE      C29            35.3455566186       -1.0788118850        9.1029872903  MEMB      69              0.0000000000
      8604        69  DOPE      H9R            35.1515138636       -0.0391148010        9.4131618989  MEMB      69              0.0000000000
      8605        69  DOPE      C210           36.3399143999       -1.3207786165        8.2314754929  MEMB      69              0.0000000000
      8606        69  DOPE      H10R           36.9892886935       -0.4900738104        7.9089300001  MEMB      69              0.0000000000
      8607        69  DOPE      C211           36.6710004004       -2.6665043882        7.6349804954  MEMB      69              0.0000000000
      8608        69  DOPE      H11R           36.6407998088       -3.4567338235        8.4197717400  MEMB      69              0.0000000000
      8609        69  DOPE      H11S           37.7175134517       -2.6573006698        7.2582338755  MEMB      69              0.0000000000
      8610        69  DOPE      C212           35.7373806339       -3.1126497465        6.4849799953  MEMB      69              0.0000000000
      8611        69  DOPE      H12R           34.7756872776       -3.4835263398        6.9037496315  MEMB      69              0.0000000000
      8612        69  DOPE      H12S           36.2114631410       -3.9712152225        5.9706038860  MEMB      69              0.0000000000
      8613        69  DOPE      C213           35.4318535175       -2.0445718418        5.4203185592  MEMB      69              0.0000000000
      8614        69  DOPE      H13R           34.8495853561       -1.2332603437        5.9001168961  MEMB      69              0.0000000000
      8615        69  DOPE      H13S           34.7746956797       -2.4902370387        4.6429718495  MEMB      69              0.0000000000
      8616        69  DOPE      C214           36.6839252557       -1.5049364179        4.7106239491  MEMB      69              0.0000000000
      8617        69  DOPE      H14R           37.4953749617       -1.3460940387        5.4489153904  MEMB      69              0.0000000000
      8618        69  DOPE      H14S           36.4794212604       -0.5241788531        4.2315181658  MEMB      69              0.0000000000
      8619        69  DOPE      C215           37.1378672457       -2.4789991447        3.6218538965  MEMB      69              0.0000000000
      8620        69  DOPE      H15R           36.3506591833       -2.5384744891        2.8412380537  MEMB      69              0.0000000000
      8621        69  DOPE      H15S           37.2250700902       -3.4859826108        4.0875595341  MEMB      69              0.0000000000
      8622        69  DOPE      C216           38.4743771087       -2.1391781444        2.9622784041  MEMB      69              0.0000000000
      8623        69  DOPE      H16R           39.2052362796       -1.8513376197        3.7514196658  MEMB      69              0.0000000000
      8624        69  DOPE      H16S           38.3567110638       -1.2778266383        2.2667756996  MEMB      69              0.0000000000
      8625        69  DOPE      C217           39.0303021126       -3.3448457079        2.1946624521  MEMB      69              0.0000000000
      8626        69  DOPE      H17R           39.0163844002       -4.2378023375        2.8632499985  MEMB      69              0.0000000000
      8627        69  DOPE      H17S           40.0936031037       -3.1334876713        1.9433586346  MEMB      69              0.0000000000
      8628        69  DOPE      C218           38.2657828451       -3.6625147853        0.9078086576  MEMB      69              0.0000000000
      8629        69  DOPE      H18R           38.0287654790       -2.7376499677        0.3432016333  MEMB      69              0.0000000000
      8630        69  DOPE      H18S           37.3174444678       -4.1913052166        1.1149817645  MEMB      69              0.0000000000
      8631        69  DOPE      H18T           38.8715713780       -4.3248688482        0.2580518976  MEMB      69              0.0000000000
      8632        69  DOPE      C33            36.6984464729       -8.9959200328       14.2486673573  MEMB      69              0.0000000000
      8633        69  DOPE      H3X            35.7366992848       -9.4286903541       13.8867447793  MEMB      69              0.0000000000
      8634        69  DOPE      H3Y            37.3751604098       -9.8433003202       14.4975691378  MEMB      69              0.0000000000
      8635        69  DOPE      C34            37.2790115770       -8.1517016318       13.1016946432  MEMB      69              0.0000000000
      8636        69  DOPE      H4X            36.5781788722       -7.3145530860       12.8813473909  MEMB      69              0.0000000000
      8637        69  DOPE      H4Y            38.2371277718       -7.6985713292       13.4383841959  MEMB      69              0.0000000000
      8638        69  DOPE      C35            37.5403286370       -8.9346336414       11.8008058850  MEMB      69              0.0000000000
      8639        69  DOPE      H5X            36.6242819972       -9.4836368590       11.5055317708  MEMB      69              0.0000000000
      8640        69  DOPE      H5Y            38.3335983053       -9.6911145269       11.9948140756  MEMB      69              0.0000000000
      8641        69  DOPE      C36            37.9678614184       -8.0146666619       10.6411994578  MEMB      69              0.0000000000
      8642        69  DOPE      H6X            38.9485011027       -7.5705655210       10.9073375305  MEMB      69              0.0000000000
      8643        69  DOPE      H6Y            37.2344289334       -7.1853414668       10.5310695553  MEMB      69              0.0000000000
      8644        69  DOPE      C37            38.1418051034       -8.7122511375        9.2818493801  MEMB      69              0.0000000000
      8645        69  DOPE      H7X            38.6453747036       -9.6898183788        9.4590561039  MEMB      69              0.0000000000
      8646        69  DOPE      H7Y            37.1483607142       -8.9254514127        8.8299592318  MEMB      69              0.0000000000
      8647        69  DOPE      C38            39.0251683152       -7.9139948729        8.2922985182  MEMB      69              0.0000000000
      8648        69  DOPE      H8X            39.2993602609       -8.5990517841        7.4588686723  MEMB      69              0.0000000000
      8649        69  DOPE      H8Y            39.9848127180       -7.6712137805        8.8012237635  MEMB      69              0.0000000000
      8650        69  DOPE      C39            38.4063659258       -6.6491933821        7.7429312546  MEMB      69              0.0000000000
      8651        69  DOPE      H9X            38.5786808541       -5.7386487414        8.3389546604  MEMB      69              0.0000000000
      8652        69  DOPE      C310           37.6856251030       -6.5441210151        6.6094243011  MEMB      69              0.0000000000
      8653        69  DOPE      H10X           37.3398970298       -5.5493584052        6.3020919541  MEMB      69              0.0000000000
      8654        69  DOPE      C311           37.3357266345       -7.6572125766        5.6500380982  MEMB      69              0.0000000000
      8655        69  DOPE      H11X           37.8998043933       -7.5366272054        4.7002279632  MEMB      69              0.0000000000
      8656        69  DOPE      H11Y           37.6253196210       -8.6419732479        6.0772684949  MEMB      69              0.0000000000
      8657        69  DOPE      C312           35.8305130664       -7.7618529600        5.3263269270  MEMB      69              0.0000000000
      8658        69  DOPE      H12X           35.2576458665       -7.7438886711        6.2829929855  MEMB      69              0.0000000000
      8659        69  DOPE      H12Y           35.6295279230       -8.7418636062        4.8371319199  MEMB      69              0.0000000000
      8660        69  DOPE      C313           35.2760173878       -6.6614838182        4.4128676560  MEMB      69              0.0000000000
      8661        69  DOPE      H13X           34.1658927999       -6.7012103478        4.4747905304  MEMB      69              0.0000000000
      8662        69  DOPE      H13Y           35.5964722054       -5.6666795287        4.7884747775  MEMB      69              0.0000000000
      8663        69  DOPE      C314           35.6581170157       -6.7766038403        2.9282106885  MEMB      69              0.0000000000
      8664        69  DOPE      H14X           35.1490472767       -7.6485815113        2.4637980729  MEMB      69              0.0000000000
      8665        69  DOPE      H14Y           36.7552197316       -6.9395505567        2.8511863559  MEMB      69              0.0000000000
      8666        69  DOPE      C315           35.3237206909       -5.4899480770        2.1559002103  MEMB      69              0.0000000000
      8667        69  DOPE      H15X           35.5608147021       -5.5852354623        1.0772903971  MEMB      69              0.0000000000
      8668        69  DOPE      H15Y           35.9684151983       -4.6950650709        2.5935550413  MEMB      69              0.0000000000
      8669        69  DOPE      C316           33.8884838221       -4.9928780098        2.3126864734  MEMB      69              0.0000000000
      8670        69  DOPE      H16X           33.7379055561       -4.8886851299        3.3980825831  MEMB      69              0.0000000000
      8671        69  DOPE      H16Y           33.1512888745       -5.7233352438        1.9195456473  MEMB      69              0.0000000000
      8672        69  DOPE      C317           33.6630160431       -3.5832436071        1.7623365234  MEMB      69              0.0000000000
      8673        69  DOPE      H17X           34.6408979756       -3.0526748207        1.7694048709  MEMB      69              0.0000000000
      8674        69  DOPE      H17Y           33.3319516319       -3.6476889419        0.7045061822  MEMB      69              0.0000000000
      8675        69  DOPE      C318           32.6710271259       -2.7637433136        2.5955231415  MEMB      69              0.0000000000
      8676        69  DOPE      H18X           31.6765286423       -3.2517347860        2.6226279743  MEMB      69              0.0000000000
      8677        69  DOPE      H18Y           33.0124731407       -2.6582356536        3.6452709349  MEMB      69              0.0000000000
      8678        69  DOPE      H18Z           32.5565162303       -1.7473108609        2.1650690049  MEMB      69              0.0000000000
      8679        70  DOPE      N              36.8175834890        4.4847543869       21.4985457473  MEMB      70              0.0000000000
      8680        70  DOPE      HN1            36.0075988143        3.8300162698       21.5146802045  MEMB      70              0.0000000000
      8681        70  DOPE      HN2            37.5825088455        4.1760669706       22.1575828698  MEMB      70              0.0000000000
      8682        70  DOPE      HN3            36.4844968327        5.4328899937       21.7703204874  MEMB      70              0.0000000000
      8683        70  DOPE      C12            37.2937689628        4.4429334053       20.0705893520  MEMB      70              0.0000000000
      8684        70  DOPE      H12A           37.9710611926        3.5659637677       19.9909959944  MEMB      70              0.0000000000
      8685        70  DOPE      H12B           37.8620073407        5.3734331552       19.8677936198  MEMB      70              0.0000000000
      8686        70  DOPE      C11            36.1312509116        4.3004497771       19.0585620174  MEMB      70              0.0000000000
      8687        70  DOPE      H11A           36.5547004367        4.2924405184       18.0224140327  MEMB      70              0.0000000000
      8688        70  DOPE      H11B           35.4855101520        5.2025689385       19.1141074800  MEMB      70              0.0000000000
      8689        70  DOPE      P              35.6793294849        1.7486572571       18.6280434065  MEMB      70              0.0000000000
      8690        70  DOPE      O13            35.5027334846        0.7119206421       19.6765444117  MEMB      70              0.0000000000
      8691        70  DOPE      O14            37.0372760424        1.8997100891       18.0602268249  MEMB      70              0.0000000000
      8692        70  DOPE      O11            34.5635042675        1.7454170654       17.4787634240  MEMB      70              0.0000000000
      8693        70  DOPE      O12            35.3315149241        3.1399538739       19.3161181178  MEMB      70              0.0000000000
      8694        70  DOPE      C1             33.1751828834        1.8050295147       17.8701891388  MEMB      70              0.0000000000
      8695        70  DOPE      HA             32.9625279421        2.6714872761       18.5306575407  MEMB      70              0.0000000000
      8696        70  DOPE      HB             32.9380248915        0.8789609501       18.4305954366  MEMB      70              0.0000000000
      8697        70  DOPE      C2             32.1057927230        1.7939047700       16.7097029170  MEMB      70              0.0000000000
      8698        70  DOPE      HS             31.2714927083        1.1305000201       17.0248361617  MEMB      70              0.0000000000
      8699        70  DOPE      O21            32.6111636009        1.3224681259       15.4628718863  MEMB      70              0.0000000000
      8700        70  DOPE      C21            33.3105933510        0.2167637512       15.4484097543  MEMB      70              0.0000000000
      8701        70  DOPE      O22            33.5983821955       -0.5330952479       16.3543548021  MEMB      70              0.0000000000
      8702        70  DOPE      C22            33.7320936437        0.0398706534       14.0061203908  MEMB      70              0.0000000000
      8703        70  DOPE      H2R            33.1782586880        0.7115110528       13.3166482264  MEMB      70              0.0000000000
      8704        70  DOPE      H2S            33.5032256493       -1.0119074633       13.7428978511  MEMB      70              0.0000000000
      8705        70  DOPE      C3             31.4491082268        3.1878320513       16.4393640093  MEMB      70              0.0000000000
      8706        70  DOPE      HX             30.9841378584        3.5356270675       17.3851773337  MEMB      70              0.0000000000
      8707        70  DOPE      HY             30.6234137832        3.0974581106       15.6942981839  MEMB      70              0.0000000000
      8708        70  DOPE      O31            32.4199093144        4.1624391254       16.0430860099  MEMB      70              0.0000000000
      8709        70  DOPE      C31            32.6682901287        4.2514924712       14.7458002108  MEMB      70              0.0000000000
      8710        70  DOPE      O32            31.9528887606        3.8624092204       13.8337592213  MEMB      70              0.0000000000
      8711        70  DOPE      C32            34.0586759757        4.8562840867       14.6124524489  MEMB      70              0.0000000000
      8712        70  DOPE      H2X            33.9971553633        5.8798401122       15.0331395927  MEMB      70              0.0000000000
      8713        70  DOPE      H2Y            34.7478097641        4.2648618675       15.2524178310  MEMB      70              0.0000000000
      8714        70  DOPE      C23            35.2343844129        0.2644495480       13.9534886141  MEMB      70              0.0000000000
      8715        70  DOPE      H3R            35.6573624721       -0.5783144587       13.3596561297  MEMB      70              0.0000000000
      8716        70  DOPE      H3S            35.7022060969        0.2682851669       14.9721189837  MEMB      70              0.0000000000
      8717        70  DOPE      C24            35.7362922796        1.5405969434       13.3255274209  MEMB      70              0.0000000000
      8718        70  DOPE      H4R            35.6046825912        2.4023446373       14.0219036355  MEMB      70              0.0000000000
      8719        70  DOPE      H4S            35.2011057540        1.7574901479       12.3757569920  MEMB      70              0.0000000000
      8720        70  DOPE      C25            37.2186075445        1.2710982222       13.0804594132  MEMB      70              0.0000000000
      8721        70  DOPE      H5R            37.2937490619        0.5073421238       12.2693835465  MEMB      70              0.0000000000
      8722        70  DOPE      H5S            37.6733705756        0.8235221209       13.9942873648  MEMB      70              0.0000000000
      8723        70  DOPE      C26            37.9971138853        2.5009054254       12.6640136034  MEMB      70              0.0000000000
      8724        70  DOPE      H6R            39.0365463121        2.1493072297       12.4789181461  MEMB      70              0.0000000000
      8725        70  DOPE      H6S            38.0448920928        3.2471409680       13.4875668615  MEMB      70              0.0000000000
      8726        70  DOPE      C27            37.3656419427        3.1236240950       11.4136871713  MEMB      70              0.0000000000
      8727        70  DOPE      H7R            36.4120941725        3.6179282118       11.6874059178  MEMB      70              0.0000000000
      8728        70  DOPE      H7S            37.1067916062        2.3023080655       10.7083083637  MEMB      70              0.0000000000
      8729        70  DOPE      C28            38.2605757889        4.1464839893       10.7142533848  MEMB      70              0.0000000000
      8730        70  DOPE      H8R            38.3894324723        5.0179461056       11.3897290700  MEMB      70              0.0000000000
      8731        70  DOPE      H8S            37.7436708920        4.5270340340        9.8044247174  MEMB      70              0.0000000000
      8732        70  DOPE      C29            39.5762215200        3.4851901832       10.3966696464  MEMB      70              0.0000000000
      8733        70  DOPE      H9R            40.4025781023        3.7164706885       11.0862532994  MEMB      70              0.0000000000
      8734        70  DOPE      C210           39.7841210431        2.6335081331        9.3826409007  MEMB      70              0.0000000000
      8735        70  DOPE      H10R           40.7847870664        2.1989519640        9.2443423508  MEMB      70              0.0000000000
      8736        70  DOPE      C211           38.7423273384        2.1993426190        8.3836548546  MEMB      70              0.0000000000
      8737        70  DOPE      H11R           37.7107237306        2.5235074500        8.6529130453  MEMB      70              0.0000000000
      8738        70  DOPE      H11S           38.7229033036        1.0896114857        8.3088228559  MEMB      70              0.0000000000
      8739        70  DOPE      C212           39.0827927994        2.8120815319        7.0174917477  MEMB      70              0.0000000000
      8740        70  DOPE      H12R           38.3639770696        2.4171779566        6.2715988441  MEMB      70              0.0000000000
      8741        70  DOPE      H12S           40.0892326524        2.4467684568        6.7083154789  MEMB      70              0.0000000000
      8742        70  DOPE      C213           39.0958768406        4.3583902403        7.0064791663  MEMB      70              0.0000000000
      8743        70  DOPE      H13R           40.0417085711        4.7101874154        6.5629690278  MEMB      70              0.0000000000
      8744        70  DOPE      H13S           39.0967532514        4.7722727716        8.0369601926  MEMB      70              0.0000000000
      8745        70  DOPE      C214           37.9484477264        5.0327998951        6.2500079373  MEMB      70              0.0000000000
      8746        70  DOPE      H14R           38.1711270501        6.1198769623        6.1465034240  MEMB      70              0.0000000000
      8747        70  DOPE      H14S           37.0654980606        4.9176314796        6.9059952978  MEMB      70              0.0000000000
      8748        70  DOPE      C215           37.6116533886        4.4400462557        4.8754002417  MEMB      70              0.0000000000
      8749        70  DOPE      H15R           37.0492028093        3.4942826672        5.0500979317  MEMB      70              0.0000000000
      8750        70  DOPE      H15S           38.5431647806        4.1850453657        4.3253460837  MEMB      70              0.0000000000
      8751        70  DOPE      C216           36.7332410588        5.3659198670        4.0179955567  MEMB      70              0.0000000000
      8752        70  DOPE      H16R           37.3614655082        6.1449735873        3.5471215987  MEMB      70              0.0000000000
      8753        70  DOPE      H16S           35.9879551918        5.8697818145        4.6675032609  MEMB      70              0.0000000000
      8754        70  DOPE      C217           35.9282190739        4.5956317161        2.9708637871  MEMB      70              0.0000000000
      8755        70  DOPE      H17R           35.3989030345        3.8121994904        3.5460799737  MEMB      70              0.0000000000
      8756        70  DOPE      H17S           36.6127974834        4.0972413882        2.2557257231  MEMB      70              0.0000000000
      8757        70  DOPE      C218           34.8551713292        5.3934457987        2.2292424144  MEMB      70              0.0000000000
      8758        70  DOPE      H18R           34.2085253318        5.9294583624        2.9572975594  MEMB      70              0.0000000000
      8759        70  DOPE      H18S           34.2107810292        4.7038646823        1.6407656489  MEMB      70              0.0000000000
      8760        70  DOPE      H18T           35.3057309468        6.1315112823        1.5327320967  MEMB      70              0.0000000000
      8761        70  DOPE      C33            34.5983538274        4.8685433370       13.1672841188  MEMB      70              0.0000000000
      8762        70  DOPE      H3X            34.5223574642        3.8724601871       12.6915750787  MEMB      70              0.0000000000
      8763        70  DOPE      H3Y            35.6761711848        5.1582525584       13.2198659362  MEMB      70              0.0000000000
      8764        70  DOPE      C34            33.8758536707        5.8945903502       12.3072847328  MEMB      70              0.0000000000
      8765        70  DOPE      H4X            32.8854532600        5.5141346250       11.9861497926  MEMB      70              0.0000000000
      8766        70  DOPE      H4Y            33.6757988138        6.7147693007       13.0159574491  MEMB      70              0.0000000000
      8767        70  DOPE      C35            34.6934201915        6.4002473628       11.1145506930  MEMB      70              0.0000000000
      8768        70  DOPE      H5X            35.7696378140        6.4881910151       11.3723354056  MEMB      70              0.0000000000
      8769        70  DOPE      H5Y            34.3459751907        7.4188556145       10.8259270247  MEMB      70              0.0000000000
      8770        70  DOPE      C36            34.5039631436        5.5351997040        9.8724553751  MEMB      70              0.0000000000
      8771        70  DOPE      H6X            33.4088059656        5.4536856495        9.7027356461  MEMB      70              0.0000000000
      8772        70  DOPE      H6Y            34.9114438811        4.5130495401       10.0268365150  MEMB      70              0.0000000000
      8773        70  DOPE      C37            35.1578327064        6.2116036214        8.6673315435  MEMB      70              0.0000000000
      8774        70  DOPE      H7X            34.9039483024        7.2818402258        8.7108639067  MEMB      70              0.0000000000
      8775        70  DOPE      H7Y            36.2617366051        6.1271369453        8.7832732946  MEMB      70              0.0000000000
      8776        70  DOPE      C38            34.7270302664        5.6996086281        7.2855784249  MEMB      70              0.0000000000
      8777        70  DOPE      H8X            34.8656941631        4.5973738888        7.2762275701  MEMB      70              0.0000000000
      8778        70  DOPE      H8Y            35.4472898213        6.1363599120        6.5664555967  MEMB      70              0.0000000000
      8779        70  DOPE      C39            33.3564738168        6.1157306887        6.8315611799  MEMB      70              0.0000000000
      8780        70  DOPE      H9X            33.3376135275        6.9904984942        6.1658979074  MEMB      70              0.0000000000
      8781        70  DOPE      C310           32.2192592819        5.4489764281        7.0593620537  MEMB      70              0.0000000000
      8782        70  DOPE      H10X           31.2659017314        5.8640410201        6.6965214753  MEMB      70              0.0000000000
      8783        70  DOPE      C311           32.1381100706        4.1528846787        7.8178618222  MEMB      70              0.0000000000
      8784        70  DOPE      H11X           33.1058602691        3.8687890788        8.2839809975  MEMB      70              0.0000000000
      8785        70  DOPE      H11Y           31.4067025974        4.2444610658        8.6511806417  MEMB      70              0.0000000000
      8786        70  DOPE      C312           31.7326411207        3.0024827782        6.8868900113  MEMB      70              0.0000000000
      8787        70  DOPE      H12X           30.6791313437        3.1456530224        6.6094340726  MEMB      70              0.0000000000
      8788        70  DOPE      H12Y           31.7921109028        2.0467035840        7.4508677658  MEMB      70              0.0000000000
      8789        70  DOPE      C313           32.5416001128        2.8737168388        5.5839382653  MEMB      70              0.0000000000
      8790        70  DOPE      H13X           32.0284644984        2.1194739464        4.9451505575  MEMB      70              0.0000000000
      8791        70  DOPE      H13Y           32.5319285762        3.8232978224        5.0051851037  MEMB      70              0.0000000000
      8792        70  DOPE      C314           33.9874234982        2.4258984536        5.8256741826  MEMB      70              0.0000000000
      8793        70  DOPE      H14X           34.0914659864        2.1382926663        6.8978297180  MEMB      70              0.0000000000
      8794        70  DOPE      H14Y           34.6950970720        3.2614578218        5.6371933727  MEMB      70              0.0000000000
      8795        70  DOPE      C315           34.3751671822        1.2042619208        4.9914370874  MEMB      70              0.0000000000
      8796        70  DOPE      H15X           33.5911251250        0.4283265594        5.1273202364  MEMB      70              0.0000000000
      8797        70  DOPE      H15Y           35.3341165954        0.8067931609        5.3928450953  MEMB      70              0.0000000000
      8798        70  DOPE      C316           34.5558525471        1.4745770339        3.4967458515  MEMB      70              0.0000000000
      8799        70  DOPE      H16X           35.6187673504        1.7745752869        3.3388963741  MEMB      70              0.0000000000
      8800        70  DOPE      H16Y           33.9096869516        2.3122532406        3.1550965477  MEMB      70              0.0000000000
      8801        70  DOPE      C317           34.2806499425        0.2659990261        2.6096981304  MEMB      70              0.0000000000
      8802        70  DOPE      H17X           34.3949833655       -0.6678495699        3.2035370341  MEMB      70              0.0000000000
      8803        70  DOPE      H17Y           33.2258161899        0.3117723617        2.2565125565  MEMB      70              0.0000000000
      8804        70  DOPE      C318           35.2429564576        0.2400166346        1.4238021876  MEMB      70              0.0000000000
      8805        70  DOPE      H18X           35.0055895039        1.0790985363        0.7341534157  MEMB      70              0.0000000000
      8806        70  DOPE      H18Y           36.2871399429        0.3751909580        1.7839549216  MEMB      70              0.0000000000
      8807        70  DOPE      H18Z           35.1839950496       -0.7225375633        0.8746582549  MEMB      70              0.0000000000
      8808        71  CHL1      C3             15.4231350105       33.2564542466       17.5257812659  MEMB      71              0.0000000000
      8809        71  CHL1      H3             16.4583327797       33.6686285839       17.4600211257  MEMB      71              0.0000000000
      8810        71  CHL1      O3             15.0344253114       33.1404740771       18.8893498940  MEMB      71              0.0000000000
      8811        71  CHL1      H3'            14.1768515306       32.7002967847       18.8476617202  MEMB      71              0.0000000000
      8812        71  CHL1      C4             14.4578753973       34.2183543936       16.8149349889  MEMB      71              0.0000000000
      8813        71  CHL1      H4A            13.4121847999       33.9088620899       17.0296844304  MEMB      71              0.0000000000
      8814        71  CHL1      H4B            14.5875702241       35.2224331856       17.2818362350  MEMB      71              0.0000000000
      8815        71  CHL1      C5             14.6641184120       34.2630011283       15.3173551120  MEMB      71              0.0000000000
      8816        71  CHL1      C6             14.8117336496       35.4290770622       14.6778651153  MEMB      71              0.0000000000
      8817        71  CHL1      H6             14.7521681194       36.3741887447       15.2364321625  MEMB      71              0.0000000000
      8818        71  CHL1      C7             14.8888079313       35.5340280125       13.1900267869  MEMB      71              0.0000000000
      8819        71  CHL1      H7A            14.2128318960       36.3431336029       12.8359909029  MEMB      71              0.0000000000
      8820        71  CHL1      H7B            15.9221757398       35.7999607015       12.8788309287  MEMB      71              0.0000000000
      8821        71  CHL1      C8             14.4714794283       34.2200956507       12.4802894293  MEMB      71              0.0000000000
      8822        71  CHL1      H8             13.3622472605       34.1339858513       12.5352592889  MEMB      71              0.0000000000
      8823        71  CHL1      C14            14.8817451549       34.3156313562       11.0401296070  MEMB      71              0.0000000000
      8824        71  CHL1      H14            16.0033551181       34.3610269795       11.0378723204  MEMB      71              0.0000000000
      8825        71  CHL1      C15            14.4133301783       35.5840428902       10.3164978876  MEMB      71              0.0000000000
      8826        71  CHL1      H15A           13.3617920936       35.8027846617       10.5990917124  MEMB      71              0.0000000000
      8827        71  CHL1      H15B           15.0522679173       36.4559165506       10.5629948260  MEMB      71              0.0000000000
      8828        71  CHL1      C16            14.5192711320       35.2064657889        8.8509921249  MEMB      71              0.0000000000
      8829        71  CHL1      H16A           13.5211760001       35.3179409397        8.3714582727  MEMB      71              0.0000000000
      8830        71  CHL1      H16B           15.2611691297       35.8390145015        8.3227272594  MEMB      71              0.0000000000
      8831        71  CHL1      C17            14.9549644094       33.7085960850        8.8089007593  MEMB      71              0.0000000000
      8832        71  CHL1      H17            16.0622855178       33.7013375019        8.8334100098  MEMB      71              0.0000000000
      8833        71  CHL1      C13            14.5249980655       33.1207697632       10.1670423974  MEMB      71              0.0000000000
      8834        71  CHL1      C18            13.0050539378       32.8743067028       10.1137209116  MEMB      71              0.0000000000
      8835        71  CHL1      H18A           12.4447323662       33.7388951700        9.7139218894  MEMB      71              0.0000000000
      8836        71  CHL1      H18B           12.8129864934       31.9987237672        9.4657012301  MEMB      71              0.0000000000
      8837        71  CHL1      H18C           12.5834979214       32.6459104126       11.1087346863  MEMB      71              0.0000000000
      8838        71  CHL1      C12            15.2699533214       31.9029916901       10.7652698498  MEMB      71              0.0000000000
      8839        71  CHL1      H12A           15.0661724334       30.9775365167       10.1943564761  MEMB      71              0.0000000000
      8840        71  CHL1      H12B           16.3618187498       32.1007509985       10.7214643457  MEMB      71              0.0000000000
      8841        71  CHL1      C11            14.8453250297       31.7054040646       12.2429626424  MEMB      71              0.0000000000
      8842        71  CHL1      H11A           13.7619704854       31.4878739123       12.2410449430  MEMB      71              0.0000000000
      8843        71  CHL1      H11B           15.3131358578       30.7994889484       12.6717690402  MEMB      71              0.0000000000
      8844        71  CHL1      C9             15.1041216149       32.9829285495       13.1127594284  MEMB      71              0.0000000000
      8845        71  CHL1      H9             16.2088959552       33.1451918284       13.0792722998  MEMB      71              0.0000000000
      8846        71  CHL1      C10            14.7101074380       32.8913627195       14.6084781428  MEMB      71              0.0000000000
      8847        71  CHL1      C19            13.2807867186       32.3261214570       14.6826251627  MEMB      71              0.0000000000
      8848        71  CHL1      H19A           12.5637708103       32.9430006433       14.1035134395  MEMB      71              0.0000000000
      8849        71  CHL1      H19B           13.2737187243       31.2942022147       14.2803600761  MEMB      71              0.0000000000
      8850        71  CHL1      H19C           12.8974614183       32.2692134831       15.7193256060  MEMB      71              0.0000000000
      8851        71  CHL1      C1             15.6914957375       31.9522624021       15.3581742498  MEMB      71              0.0000000000
      8852        71  CHL1      H1A            15.6092372412       30.9328254453       14.9233135690  MEMB      71              0.0000000000
      8853        71  CHL1      H1B            16.7344621031       32.3031587191       15.1902975947  MEMB      71              0.0000000000
      8854        71  CHL1      C2             15.4088447812       31.8676506715       16.8696156179  MEMB      71              0.0000000000
      8855        71  CHL1      H2A            16.1607004244       31.2158922614       17.3526962669  MEMB      71              0.0000000000
      8856        71  CHL1      H2B            14.4140736531       31.3957044298       17.0174755317  MEMB      71              0.0000000000
      8857        71  CHL1      C20            14.5447386032       33.0680039417        7.4847303027  MEMB      71              0.0000000000
      8858        71  CHL1      H20            13.4374030000       33.0577807784        7.4235825073  MEMB      71              0.0000000000
      8859        71  CHL1      C21            15.1113175903       31.6289637184        7.4443865906  MEMB      71              0.0000000000
      8860        71  CHL1      H21A           15.0188876696       31.1897274885        6.4311975618  MEMB      71              0.0000000000
      8861        71  CHL1      H21B           14.5624889820       30.9658590557        8.1424723955  MEMB      71              0.0000000000
      8862        71  CHL1      H21C           16.1756965670       31.6185742704        7.7501529500  MEMB      71              0.0000000000
      8863        71  CHL1      C22            15.0470192709       33.9492865128        6.3010390333  MEMB      71              0.0000000000
      8864        71  CHL1      H22A           14.6912173123       34.9945828800        6.4153069477  MEMB      71              0.0000000000
      8865        71  CHL1      H22B           16.1439488759       33.9710961120        6.3994727729  MEMB      71              0.0000000000
      8866        71  CHL1      C23            14.6423218086       33.5905348748        4.8582141021  MEMB      71              0.0000000000
      8867        71  CHL1      H23A           15.4294900627       33.9723328037        4.1694609163  MEMB      71              0.0000000000
      8868        71  CHL1      H23B           14.6213640690       32.4931092624        4.7278259458  MEMB      71              0.0000000000
      8869        71  CHL1      C24            13.3293909499       34.2960161110        4.4572543330  MEMB      71              0.0000000000
      8870        71  CHL1      H24A           12.5416537042       34.0350817544        5.1924670919  MEMB      71              0.0000000000
      8871        71  CHL1      H24B           13.4852861316       35.3928189135        4.5526922275  MEMB      71              0.0000000000
      8872        71  CHL1      C25            12.7991986988       34.0501967579        3.0252129755  MEMB      71              0.0000000000
      8873        71  CHL1      H25            11.6949019428       33.8895043369        3.1016776826  MEMB      71              0.0000000000
      8874        71  CHL1      C26            13.0478070160       35.2569003552        2.1111743685  MEMB      71              0.0000000000
      8875        71  CHL1      H26A           12.6036517426       36.1738525514        2.5425273174  MEMB      71              0.0000000000
      8876        71  CHL1      H26B           14.1375413634       35.4185288775        1.9820500239  MEMB      71              0.0000000000
      8877        71  CHL1      H26C           12.5871593508       35.0836589415        1.1153749927  MEMB      71              0.0000000000
      8878        71  CHL1      C27            13.3865481250       32.8182088256        2.3647330100  MEMB      71              0.0000000000
      8879        71  CHL1      H27A           12.9458214555       32.6697438243        1.3557322173  MEMB      71              0.0000000000
      8880        71  CHL1      H27B           14.4866446668       32.9115120195        2.2453096315  MEMB      71              0.0000000000
      8881        71  CHL1      H27C           13.1814672989       31.9054827860        2.9583675522  MEMB      71              0.0000000000
      8882        72  DOPE      N              24.4955502754       31.1692483400       19.9696302630  MEMB      72              0.0000000000
      8883        72  DOPE      HN1            25.3529100531       31.6940976694       20.2486002082  MEMB      72              0.0000000000
      8884        72  DOPE      HN2            24.6699520844       30.4459600933       19.2340814059  MEMB      72              0.0000000000
      8885        72  DOPE      HN3            23.8000096842       31.7897402207       19.5316352923  MEMB      72              0.0000000000
      8886        72  DOPE      C12            23.8423949027       30.4129573733       21.0804583727  MEMB      72              0.0000000000
      8887        72  DOPE      H12A           22.9640758280       30.9917500033       21.4367777643  MEMB      72              0.0000000000
      8888        72  DOPE      H12B           24.5656611346       30.2625279318       21.9086749513  MEMB      72              0.0000000000
      8889        72  DOPE      C11            23.3781684420       29.0968043422       20.4703234026  MEMB      72              0.0000000000
      8890        72  DOPE      H11A           22.7507283921       28.5672910127       21.2251310996  MEMB      72              0.0000000000
      8891        72  DOPE      H11B           24.2729708984       28.4643687812       20.2420080479  MEMB      72              0.0000000000
      8892        72  DOPE      P              22.0509715727       28.0782165521       18.5244721899  MEMB      72              0.0000000000
      8893        72  DOPE      O13            21.4675686404       27.1782148990       19.5564456216  MEMB      72              0.0000000000
      8894        72  DOPE      O14            23.1561852438       27.5783440257       17.6862262271  MEMB      72              0.0000000000
      8895        72  DOPE      O11            20.8937009447       28.7554229472       17.6819406673  MEMB      72              0.0000000000
      8896        72  DOPE      O12            22.6329328562       29.3660316964       19.2789356892  MEMB      72              0.0000000000
      8897        72  DOPE      C1             19.6952622919       29.1599748366       18.3534120130  MEMB      72              0.0000000000
      8898        72  DOPE      HA             19.8879415451       29.7047123531       19.3077341155  MEMB      72              0.0000000000
      8899        72  DOPE      HB             19.1049008834       28.2477972377       18.6089869160  MEMB      72              0.0000000000
      8900        72  DOPE      C2             18.8212561056       30.0829247704       17.4471905807  MEMB      72              0.0000000000
      8901        72  DOPE      HS             17.7991786212       30.0911208996       17.8874760591  MEMB      72              0.0000000000
      8902        72  DOPE      O21            18.7958121900       29.5871934438       16.0907470279  MEMB      72              0.0000000000
      8903        72  DOPE      C21            18.1731962073       28.4223086733       16.0179254336  MEMB      72              0.0000000000
      8904        72  DOPE      O22            17.3513895119       28.0148242035       16.8302182198  MEMB      72              0.0000000000
      8905        72  DOPE      C22            18.6191187267       27.6701847950       14.7763405664  MEMB      72              0.0000000000
      8906        72  DOPE      H2R            18.4793862797       26.5854291181       14.9973869700  MEMB      72              0.0000000000
      8907        72  DOPE      H2S            19.7004039110       27.8381991860       14.6037549056  MEMB      72              0.0000000000
      8908        72  DOPE      C3             19.3004939970       31.5752213639       17.4460267478  MEMB      72              0.0000000000
      8909        72  DOPE      HX             19.2418560466       31.9185867324       18.5007469395  MEMB      72              0.0000000000
      8910        72  DOPE      HY             18.5723785960       32.1495524579       16.8287318789  MEMB      72              0.0000000000
      8911        72  DOPE      O31            20.6517460532       31.7358391182       16.9836839092  MEMB      72              0.0000000000
      8912        72  DOPE      C31            21.0290449977       32.8376672138       16.3890335879  MEMB      72              0.0000000000
      8913        72  DOPE      O32            20.3927268200       33.8819686386       16.2760277526  MEMB      72              0.0000000000
      8914        72  DOPE      C32            22.4839491362       32.6722161961       15.9807627695  MEMB      72              0.0000000000
      8915        72  DOPE      H2X            22.8739773067       33.6761334536       15.7279257962  MEMB      72              0.0000000000
      8916        72  DOPE      H2Y            23.0469587346       32.2789910170       16.8534918774  MEMB      72              0.0000000000
      8917        72  DOPE      C23            17.7623703625       28.0453343200       13.5522379727  MEMB      72              0.0000000000
      8918        72  DOPE      H3R            16.7010937761       27.7894265589       13.7760607524  MEMB      72              0.0000000000
      8919        72  DOPE      H3S            18.1018842393       27.4059629275       12.7098127174  MEMB      72              0.0000000000
      8920        72  DOPE      C24            17.7815479527       29.5120026020       13.0977863297  MEMB      72              0.0000000000
      8921        72  DOPE      H4R            17.4360380283       30.1801941100       13.9126839792  MEMB      72              0.0000000000
      8922        72  DOPE      H4S            17.0706544502       29.6408603444       12.2494094453  MEMB      72              0.0000000000
      8923        72  DOPE      C25            19.1118461286       30.0385023491       12.5775945897  MEMB      72              0.0000000000
      8924        72  DOPE      H5R            19.5995546768       29.2617290271       11.9508750937  MEMB      72              0.0000000000
      8925        72  DOPE      H5S            19.7728506518       30.2611013427       13.4432837869  MEMB      72              0.0000000000
      8926        72  DOPE      C26            18.8628095558       31.3090081553       11.7547472271  MEMB      72              0.0000000000
      8927        72  DOPE      H6R            17.9467205857       31.8022294240       12.1519422094  MEMB      72              0.0000000000
      8928        72  DOPE      H6S            18.6602040747       31.0141427395       10.7004879571  MEMB      72              0.0000000000
      8929        72  DOPE      C27            19.9947766754       32.3336918040       11.8364839214  MEMB      72              0.0000000000
      8930        72  DOPE      H7R            20.9449052259       31.7770143595       11.9912312247  MEMB      72              0.0000000000
      8931        72  DOPE      H7S            19.8457326799       32.9893942691       12.7213080362  MEMB      72              0.0000000000
      8932        72  DOPE      C28            20.1870626587       33.1648632298       10.5576781666  MEMB      72              0.0000000000
      8933        72  DOPE      H8R            20.2657394978       32.4399347134        9.7165691737  MEMB      72              0.0000000000
      8934        72  DOPE      H8S            21.1887069316       33.6316794000       10.6605024091  MEMB      72              0.0000000000
      8935        72  DOPE      C29            19.1931030071       34.2730545023       10.2928573817  MEMB      72              0.0000000000
      8936        72  DOPE      H9R            18.9676537761       34.9152307803       11.1571871507  MEMB      72              0.0000000000
      8937        72  DOPE      C210           18.5487270976       34.5021962757        9.1318579138  MEMB      72              0.0000000000
      8938        72  DOPE      H10R           17.8073467838       35.3157976748        9.0690325041  MEMB      72              0.0000000000
      8939        72  DOPE      C211           18.6968825122       33.6822338197        7.8790041335  MEMB      72              0.0000000000
      8940        72  DOPE      H11R           17.8271144255       32.9975731533        7.8678586633  MEMB      72              0.0000000000
      8941        72  DOPE      H11S           19.6072433503       33.0471441596        7.9164927941  MEMB      72              0.0000000000
      8942        72  DOPE      C212           18.7690162688       34.4029069416        6.5148799578  MEMB      72              0.0000000000
      8943        72  DOPE      H12R           19.8030656666       34.7922659526        6.3881802573  MEMB      72              0.0000000000
      8944        72  DOPE      H12S           18.0801374893       35.2747126272        6.4833766635  MEMB      72              0.0000000000
      8945        72  DOPE      C213           18.4539614418       33.4750095750        5.3202098993  MEMB      72              0.0000000000
      8946        72  DOPE      H13R           19.1888406189       33.6721155497        4.5122026125  MEMB      72              0.0000000000
      8947        72  DOPE      H13S           17.4693585661       33.7409807933        4.8806365269  MEMB      72              0.0000000000
      8948        72  DOPE      C214           18.4306411525       31.9760280243        5.6739170522  MEMB      72              0.0000000000
      8949        72  DOPE      H14R           17.4758685282       31.7365933873        6.1815701485  MEMB      72              0.0000000000
      8950        72  DOPE      H14S           19.2695098282       31.6985058608        6.3471440034  MEMB      72              0.0000000000
      8951        72  DOPE      C215           18.5387953519       31.0846830029        4.4561821184  MEMB      72              0.0000000000
      8952        72  DOPE      H15R           17.8392229175       31.4848406837        3.6936339511  MEMB      72              0.0000000000
      8953        72  DOPE      H15S           18.1810894040       30.0641554511        4.6846203325  MEMB      72              0.0000000000
      8954        72  DOPE      C216           19.9897189260       31.0244769881        3.9779893276  MEMB      72              0.0000000000
      8955        72  DOPE      H16R           20.5592932293       30.2166877056        4.4813888500  MEMB      72              0.0000000000
      8956        72  DOPE      H16S           20.5187942757       31.9726808134        4.2319211010  MEMB      72              0.0000000000
      8957        72  DOPE      C217           20.0442454832       30.8629555256        2.4758870955  MEMB      72              0.0000000000
      8958        72  DOPE      H17R           19.5480072542       29.9098252817        2.1794557202  MEMB      72              0.0000000000
      8959        72  DOPE      H17S           21.1059339936       30.7938303576        2.1827555701  MEMB      72              0.0000000000
      8960        72  DOPE      C218           19.3804008971       32.0393424294        1.7745308001  MEMB      72              0.0000000000
      8961        72  DOPE      H18R           19.4551776820       32.9667507869        2.3777404590  MEMB      72              0.0000000000
      8962        72  DOPE      H18S           18.3049552223       31.7993136968        1.6459839646  MEMB      72              0.0000000000
      8963        72  DOPE      H18T           19.8225875250       32.2548349624        0.7889554637  MEMB      72              0.0000000000
      8964        72  DOPE      C33            22.6633599857       31.7194995030       14.7794148703  MEMB      72              0.0000000000
      8965        72  DOPE      H3X            23.6352944100       31.9668778308       14.2922167381  MEMB      72              0.0000000000
      8966        72  DOPE      H3Y            21.8711349371       31.8722388850       14.0171149379  MEMB      72              0.0000000000
      8967        72  DOPE      C34            22.7323487089       30.2383390539       15.1857852113  MEMB      72              0.0000000000
      8968        72  DOPE      H4X            23.3642683932       30.1272546790       16.0940953752  MEMB      72              0.0000000000
      8969        72  DOPE      H4Y            21.7214579545       29.8559205122       15.4568488599  MEMB      72              0.0000000000
      8970        72  DOPE      C35            23.3434577197       29.3532084413       14.0907766850  MEMB      72              0.0000000000
      8971        72  DOPE      H5X            23.5634844813       28.3488488410       14.5177494218  MEMB      72              0.0000000000
      8972        72  DOPE      H5Y            24.2992823058       29.7972931719       13.7414154448  MEMB      72              0.0000000000
      8973        72  DOPE      C36            22.3967451700       29.2010742065       12.9039306613  MEMB      72              0.0000000000
      8974        72  DOPE      H6X            22.2941085738       30.1948816604       12.4204168095  MEMB      72              0.0000000000
      8975        72  DOPE      H6Y            21.4109586062       28.8944193779       13.3139814231  MEMB      72              0.0000000000
      8976        72  DOPE      C37            22.8375104943       28.1448683929       11.8827612778  MEMB      72              0.0000000000
      8977        72  DOPE      H7X            23.7894323654       28.4524053521       11.3960712802  MEMB      72              0.0000000000
      8978        72  DOPE      H7Y            23.0312051641       27.2062377870       12.4518081140  MEMB      72              0.0000000000
      8979        72  DOPE      C38            21.7624092792       27.8563400029       10.8171858367  MEMB      72              0.0000000000
      8980        72  DOPE      H8X            20.8368756296       27.5270032991       11.3404883955  MEMB      72              0.0000000000
      8981        72  DOPE      H8Y            22.1007085617       26.9874876897       10.2124324794  MEMB      72              0.0000000000
      8982        72  DOPE      C39            21.4691729833       29.0745948900        9.9713013779  MEMB      72              0.0000000000
      8983        72  DOPE      H9X            21.2793660117       29.9959019794       10.5412001076  MEMB      72              0.0000000000
      8984        72  DOPE      C310           21.3785977007       29.1332326813        8.6339199849  MEMB      72              0.0000000000
      8985        72  DOPE      H10X           21.1175879936       30.0930382967        8.1591861571  MEMB      72              0.0000000000
      8986        72  DOPE      C311           21.5526951214       27.9741835947        7.6914229880  MEMB      72              0.0000000000
      8987        72  DOPE      H11X           22.0678995060       28.2961374509        6.7591611301  MEMB      72              0.0000000000
      8988        72  DOPE      H11Y           22.1794961651       27.1669454251        8.1324937641  MEMB      72              0.0000000000
      8989        72  DOPE      C312           20.1842563995       27.3714806290        7.3429793678  MEMB      72              0.0000000000
      8990        72  DOPE      H12X           19.6194051655       27.0808820292        8.2560908785  MEMB      72              0.0000000000
      8991        72  DOPE      H12Y           20.3770658757       26.4300896387        6.7831622738  MEMB      72              0.0000000000
      8992        72  DOPE      C313           19.3126181828       28.2804743872        6.4684855180  MEMB      72              0.0000000000
      8993        72  DOPE      H13X           18.5055370406       28.7397569022        7.0800899656  MEMB      72              0.0000000000
      8994        72  DOPE      H13Y           19.9328884804       29.1136415704        6.0780319438  MEMB      72              0.0000000000
      8995        72  DOPE      C314           18.7284139008       27.5049942022        5.2823867311  MEMB      72              0.0000000000
      8996        72  DOPE      H14X           17.8917096991       28.0684716922        4.8206562261  MEMB      72              0.0000000000
      8997        72  DOPE      H14Y           18.3071324175       26.5510319668        5.6625149483  MEMB      72              0.0000000000
      8998        72  DOPE      C315           19.7954866071       27.2172228567        4.2165560309  MEMB      72              0.0000000000
      8999        72  DOPE      H15X           20.4351605236       26.3904669579        4.5875626391  MEMB      72              0.0000000000
      9000        72  DOPE      H15Y           20.4578083181       28.1024992897        4.0975454537  MEMB      72              0.0000000000
      9001        72  DOPE      C316           19.2237418851       26.8679358677        2.8381662835  MEMB      72              0.0000000000
      9002        72  DOPE      H16X           20.0597221349       26.5845446763        2.1600608208  MEMB      72              0.0000000000
      9003        72  DOPE      H16Y           18.7341101717       27.7737959756        2.4131393912  MEMB      72              0.0000000000
      9004        72  DOPE      C317           18.1967258885       25.7384323189        2.8756292871  MEMB      72              0.0000000000
      9005        72  DOPE      H17X           18.6069784001       24.8639432787        3.4226960175  MEMB      72              0.0000000000
      9006        72  DOPE      H17Y           17.3068183728       26.0974343727        3.4417887281  MEMB      72              0.0000000000
      9007        72  DOPE      C318           17.7722532206       25.2819398576        1.4848631555  MEMB      72              0.0000000000
      9008        72  DOPE      H18X           17.4157008500       26.1580257237        0.9030013398  MEMB      72              0.0000000000
      9009        72  DOPE      H18Y           18.6222853664       24.8157846911        0.9442788305  MEMB      72              0.0000000000
      9010        72  DOPE      H18Z           16.9523211572       24.5329035815        1.5526577359  MEMB      72              0.0000000000
      9011        73  CHL1      C3            -19.6971844186      -31.4470667371       17.4163177231  MEMB      73              0.0000000000
      9012        73  CHL1      H3            -20.7622862819      -31.6626773245       17.1602374748  MEMB      73              0.0000000000
      9013        73  CHL1      O3            -19.5810833376      -31.3194579947       18.8253574244  MEMB      73              0.0000000000
      9014        73  CHL1      H3'           -19.6008263723      -32.2330021930       19.1724262614  MEMB      73              0.0000000000
      9015        73  CHL1      C4            -18.8165209865      -32.6119348846       16.9275893541  MEMB      73              0.0000000000
      9016        73  CHL1      H4A           -17.7902304063      -32.4847202352       17.3326404347  MEMB      73              0.0000000000
      9017        73  CHL1      H4B           -19.2116853000      -33.5569469735       17.3653807024  MEMB      73              0.0000000000
      9018        73  CHL1      C5            -18.7620896809      -32.6911918259       15.4134625813  MEMB      73              0.0000000000
      9019        73  CHL1      C6            -19.1034899757      -33.8037448132       14.7464095579  MEMB      73              0.0000000000
      9020        73  CHL1      H6            -19.4246887082      -34.7008389257       15.2974460884  MEMB      73              0.0000000000
      9021        73  CHL1      C7            -18.9756201682      -33.9362143783       13.2581552312  MEMB      73              0.0000000000
      9022        73  CHL1      H7A           -18.5470226315      -34.9265634553       12.9950138600  MEMB      73              0.0000000000
      9023        73  CHL1      H7B           -19.9814834966      -33.8619123912       12.7915662856  MEMB      73              0.0000000000
      9024        73  CHL1      C8            -18.0677605587      -32.8368046423       12.6447761427  MEMB      73              0.0000000000
      9025        73  CHL1      H8            -17.0205894701      -33.0544960465       12.9501834060  MEMB      73              0.0000000000
      9026        73  CHL1      C14           -18.1562622517      -32.8682223174       11.1351234354  MEMB      73              0.0000000000
      9027        73  CHL1      H14           -19.2261261884      -32.6467288793       10.8809956183  MEMB      73              0.0000000000
      9028        73  CHL1      C15           -17.8174556199      -34.1950810953       10.4489372284  MEMB      73              0.0000000000
      9029        73  CHL1      H15A          -16.8363998027      -34.5682999212       10.8081814689  MEMB      73              0.0000000000
      9030        73  CHL1      H15B          -18.5618371728      -34.9714258490       10.6589696305  MEMB      73              0.0000000000
      9031        73  CHL1      C16           -17.7323156760      -33.8003720967        8.9720559540  MEMB      73              0.0000000000
      9032        73  CHL1      H16A          -16.8653428223      -34.3064952006        8.5032110704  MEMB      73              0.0000000000
      9033        73  CHL1      H16B          -18.6550016625      -34.0773383162        8.4190765525  MEMB      73              0.0000000000
      9034        73  CHL1      C17           -17.6044905455      -32.2432824406        8.9515893240  MEMB      73              0.0000000000
      9035        73  CHL1      H17           -18.6287200523      -31.8534609903        8.7368458337  MEMB      73              0.0000000000
      9036        73  CHL1      C13           -17.3224806464      -31.8266450721       10.4043029816  MEMB      73              0.0000000000
      9037        73  CHL1      C18           -15.8133243670      -32.0343314547       10.6858449156  MEMB      73              0.0000000000
      9038        73  CHL1      H18A          -15.4436559229      -32.9954539868       10.2771168575  MEMB      73              0.0000000000
      9039        73  CHL1      H18B          -15.2271549310      -31.2175633580       10.2252331326  MEMB      73              0.0000000000
      9040        73  CHL1      H18C          -15.5943369165      -32.0146410956       11.7695303802  MEMB      73              0.0000000000
      9041        73  CHL1      C12           -17.8110718428      -30.4364936623       10.8470480472  MEMB      73              0.0000000000
      9042        73  CHL1      H12A          -17.1813555029      -29.6415174460       10.4020168457  MEMB      73              0.0000000000
      9043        73  CHL1      H12B          -18.8576661564      -30.2850155780       10.5052957043  MEMB      73              0.0000000000
      9044        73  CHL1      C11           -17.7514563588      -30.2988630140       12.3807241576  MEMB      73              0.0000000000
      9045        73  CHL1      H11A          -16.6710996345      -30.2790457520       12.6299248073  MEMB      73              0.0000000000
      9046        73  CHL1      H11B          -18.1843823741      -29.3211896870       12.6771722562  MEMB      73              0.0000000000
      9047        73  CHL1      C9            -18.4676483655      -31.4529836702       13.1564226430  MEMB      73              0.0000000000
      9048        73  CHL1      H9            -19.5542971923      -31.3381671998       12.9154315725  MEMB      73              0.0000000000
      9049        73  CHL1      C10           -18.3483770426      -31.3854309642       14.7039050081  MEMB      73              0.0000000000
      9050        73  CHL1      C19           -16.8731841409      -31.1110372131       15.0520188244  MEMB      73              0.0000000000
      9051        73  CHL1      H19A          -16.7007522449      -31.1069678179       16.1450399159  MEMB      73              0.0000000000
      9052        73  CHL1      H19B          -16.1964087375      -31.8537746328       14.5822448459  MEMB      73              0.0000000000
      9053        73  CHL1      H19C          -16.5951398301      -30.1013165915       14.6917225283  MEMB      73              0.0000000000
      9054        73  CHL1      C1            -19.2520074380      -30.2438240777       15.2413580715  MEMB      73              0.0000000000
      9055        73  CHL1      H1A           -18.9361068543      -29.2737101144       14.8012876536  MEMB      73              0.0000000000
      9056        73  CHL1      H1B           -20.2871154607      -30.4436082643       14.8851392772  MEMB      73              0.0000000000
      9057        73  CHL1      C2            -19.2929642348      -30.1183190281       16.7704736183  MEMB      73              0.0000000000
      9058        73  CHL1      H2A           -20.0292682201      -29.3391341884       17.0643326141  MEMB      73              0.0000000000
      9059        73  CHL1      H2B           -18.2980657367      -29.7985804672       17.1492403014  MEMB      73              0.0000000000
      9060        73  CHL1      C20           -16.6689154465      -31.7558512939        7.8510985582  MEMB      73              0.0000000000
      9061        73  CHL1      H20           -15.6205307614      -32.0626721309        8.0701775924  MEMB      73              0.0000000000
      9062        73  CHL1      C21           -16.7220278709      -30.2204043771        7.7294272402  MEMB      73              0.0000000000
      9063        73  CHL1      H21A          -17.7646015300      -29.8477260386        7.6796743929  MEMB      73              0.0000000000
      9064        73  CHL1      H21B          -16.1948519878      -29.8973658842        6.8061705406  MEMB      73              0.0000000000
      9065        73  CHL1      H21C          -16.2281608107      -29.7434119584        8.5939303544  MEMB      73              0.0000000000
      9066        73  CHL1      C22           -17.0305095513      -32.3648260984        6.4874897230  MEMB      73              0.0000000000
      9067        73  CHL1      H22A          -16.3665410448      -31.8975342078        5.7257591540  MEMB      73              0.0000000000
      9068        73  CHL1      H22B          -16.8288550863      -33.4574461908        6.4523470785  MEMB      73              0.0000000000
      9069        73  CHL1      C23           -18.4886507468      -32.1053408830        6.1046386474  MEMB      73              0.0000000000
      9070        73  CHL1      H23A          -19.1194907151      -32.9524024749        6.4267536159  MEMB      73              0.0000000000
      9071        73  CHL1      H23B          -18.9018722845      -31.2284315627        6.6412628610  MEMB      73              0.0000000000
      9072        73  CHL1      C24           -18.5735731959      -31.8434035537        4.6139234865  MEMB      73              0.0000000000
      9073        73  CHL1      H24A          -18.0075361161      -30.9049050286        4.4102105682  MEMB      73              0.0000000000
      9074        73  CHL1      H24B          -18.0672019726      -32.6658212309        4.0571064594  MEMB      73              0.0000000000
      9075        73  CHL1      C25           -19.9822929412      -31.6940066835        4.0465818336  MEMB      73              0.0000000000
      9076        73  CHL1      H25           -20.4892179449      -32.6885336418        4.0302282113  MEMB      73              0.0000000000
      9077        73  CHL1      C26           -20.8897457894      -30.7275012694        4.8322759929  MEMB      73              0.0000000000
      9078        73  CHL1      H26A          -21.9004708038      -30.6801846849        4.3741681174  MEMB      73              0.0000000000
      9079        73  CHL1      H26B          -21.0071090090      -31.0685899451        5.8825390586  MEMB      73              0.0000000000
      9080        73  CHL1      H26C          -20.4542344543      -29.7089950937        4.8344988589  MEMB      73              0.0000000000
      9081        73  CHL1      C27           -19.7678382231      -31.2198689270        2.6182378937  MEMB      73              0.0000000000
      9082        73  CHL1      H27A          -19.0857258976      -30.3473445199        2.5859813496  MEMB      73              0.0000000000
      9083        73  CHL1      H27B          -19.3661822570      -32.0287113651        1.9705411693  MEMB      73              0.0000000000
      9084        73  CHL1      H27C          -20.7329782864      -30.9076575270        2.2178643996  MEMB      73              0.0000000000
      9085        74  CHL1      C3            -12.5254469110      -35.2262560221       17.2946451928  MEMB      74              0.0000000000
      9086        74  CHL1      H3            -13.2547329529      -36.0031900274       16.9700746889  MEMB      74              0.0000000000
      9087        74  CHL1      O3            -12.4584887962      -35.2503522087       18.7190691179  MEMB      74              0.0000000000
      9088        74  CHL1      H3'           -12.1883572450      -36.1561533222       18.9227472095  MEMB      74              0.0000000000
      9089        74  CHL1      C4            -11.1474068679      -35.5587220803       16.7110214370  MEMB      74              0.0000000000
      9090        74  CHL1      H4A           -10.3944781960      -34.8891301055       17.1755870046  MEMB      74              0.0000000000
      9091        74  CHL1      H4B           -10.8800873968      -36.5821629267       17.0479071634  MEMB      74              0.0000000000
      9092        74  CHL1      C5            -11.0608748325      -35.4201900405       15.2023164823  MEMB      74              0.0000000000
      9093        74  CHL1      C6            -10.5918996939      -36.3791259023       14.4131579790  MEMB      74              0.0000000000
      9094        74  CHL1      H6            -10.3170035628      -37.3243935208       14.8413170394  MEMB      74              0.0000000000
      9095        74  CHL1      C7            -10.2910734611      -36.2290358388       12.9612775734  MEMB      74              0.0000000000
      9096        74  CHL1      H7A            -9.2915678626      -36.6376995485       12.7078957070  MEMB      74              0.0000000000
      9097        74  CHL1      H7B           -11.0345060703      -36.8185570663       12.4071813522  MEMB      74              0.0000000000
      9098        74  CHL1      C8            -10.4561965587      -34.7942242375       12.4289247761  MEMB      74              0.0000000000
      9099        74  CHL1      H8             -9.5509484943      -34.1937539205       12.6481045316  MEMB      74              0.0000000000
      9100        74  CHL1      C14           -10.5853487063      -34.8780101890       10.9381500353  MEMB      74              0.0000000000
      9101        74  CHL1      H14           -11.4073849127      -35.6166940155       10.7403988709  MEMB      74              0.0000000000
      9102        74  CHL1      C15            -9.3590457613      -35.4133509779       10.2131817933  MEMB      74              0.0000000000
      9103        74  CHL1      H15A           -8.4721270808      -34.7859719727       10.4500787453  MEMB      74              0.0000000000
      9104        74  CHL1      H15B           -9.1119960511      -36.4619330118       10.4585955686  MEMB      74              0.0000000000
      9105        74  CHL1      C16            -9.8077460414      -35.2211572993        8.7709802516  MEMB      74              0.0000000000
      9106        74  CHL1      H16A           -8.9193863201      -34.9303039908        8.1816684774  MEMB      74              0.0000000000
      9107        74  CHL1      H16B          -10.2386255952      -36.1810348267        8.4047352077  MEMB      74              0.0000000000
      9108        74  CHL1      C17           -10.9810037201      -34.1845199216        8.7603249046  MEMB      74              0.0000000000
      9109        74  CHL1      H17           -11.9039017466      -34.8118317060        8.6829483058  MEMB      74              0.0000000000
      9110        74  CHL1      C13           -10.9983350006      -33.6144202296       10.1934591682  MEMB      74              0.0000000000
      9111        74  CHL1      C18            -9.9195942010      -32.5087161862       10.2967793041  MEMB      74              0.0000000000
      9112        74  CHL1      H18A           -9.6507710154      -32.3202084950       11.3552322789  MEMB      74              0.0000000000
      9113        74  CHL1      H18B           -8.9979530651      -32.7769043132        9.7426039178  MEMB      74              0.0000000000
      9114        74  CHL1      H18C          -10.3167567089      -31.5645032358        9.8686798065  MEMB      74              0.0000000000
      9115        74  CHL1      C12           -12.3382644175      -33.1569939201       10.7944703722  MEMB      74              0.0000000000
      9116        74  CHL1      H12A          -12.6844946612      -32.2351934655       10.3007275053  MEMB      74              0.0000000000
      9117        74  CHL1      H12B          -13.1030110407      -33.9429884890       10.6136914452  MEMB      74              0.0000000000
      9118        74  CHL1      C11           -12.2136275737      -32.9284756927       12.3206340826  MEMB      74              0.0000000000
      9119        74  CHL1      H11A          -11.5228743782      -32.0844425396       12.5215484185  MEMB      74              0.0000000000
      9120        74  CHL1      H11B          -13.2093383195      -32.6357647848       12.7144181597  MEMB      74              0.0000000000
      9121        74  CHL1      C9            -11.7060421261      -34.1980985353       13.0604581870  MEMB      74              0.0000000000
      9122        74  CHL1      H9            -12.5216084598      -34.9473903736       12.8819978692  MEMB      74              0.0000000000
      9123        74  CHL1      C10           -11.5366734637      -34.1052759768       14.6031787436  MEMB      74              0.0000000000
      9124        74  CHL1      C19           -10.3488114355      -33.1692433502       14.9317688569  MEMB      74              0.0000000000
      9125        74  CHL1      H19A          -10.1675336142      -33.1320497772       16.0178902915  MEMB      74              0.0000000000
      9126        74  CHL1      H19B           -9.3903369130      -33.5243014028       14.5044082042  MEMB      74              0.0000000000
      9127        74  CHL1      H19C          -10.5240023527      -32.1470674006       14.5506946978  MEMB      74              0.0000000000
      9128        74  CHL1      C1            -12.9073390229      -33.7356691560       15.2539683509  MEMB      74              0.0000000000
      9129        74  CHL1      H1A           -13.1874567121      -32.7101216903       14.9431237805  MEMB      74              0.0000000000
      9130        74  CHL1      H1B           -13.6720868667      -34.4234127802       14.8244786473  MEMB      74              0.0000000000
      9131        74  CHL1      C2            -12.9938307132      -33.8520991003       16.7939788923  MEMB      74              0.0000000000
      9132        74  CHL1      H2A           -14.0409803190      -33.6893868559       17.1259651908  MEMB      74              0.0000000000
      9133        74  CHL1      H2B           -12.3692619651      -33.0625013092       17.2527706407  MEMB      74              0.0000000000
      9134        74  CHL1      C20           -11.0034267671      -33.2563841379        7.5286707700  MEMB      74              0.0000000000
      9135        74  CHL1      H20           -10.2723267012      -32.4274261584        7.6550106249  MEMB      74              0.0000000000
      9136        74  CHL1      C21           -12.4215686968      -32.6713038480        7.3931753669  MEMB      74              0.0000000000
      9137        74  CHL1      H21A          -12.5378385274      -32.1471890293        6.4233955497  MEMB      74              0.0000000000
      9138        74  CHL1      H21B          -12.6111645035      -31.9403316042        8.2012443087  MEMB      74              0.0000000000
      9139        74  CHL1      H21C          -13.1892494687      -33.4712206134        7.4533082633  MEMB      74              0.0000000000
      9140        74  CHL1      C22           -10.5992674639      -34.0320272834        6.2440898893  MEMB      74              0.0000000000
      9141        74  CHL1      H22A           -9.5500767981      -34.3710325124        6.3848398181  MEMB      74              0.0000000000
      9142        74  CHL1      H22B          -11.2541867120      -34.9255547710        6.1483338892  MEMB      74              0.0000000000
      9143        74  CHL1      C23           -10.5267558701      -33.3094751395        4.8846518243  MEMB      74              0.0000000000
      9144        74  CHL1      H23A          -11.5391121021      -33.0475350189        4.5130646392  MEMB      74              0.0000000000
      9145        74  CHL1      H23B           -9.9452525490      -32.3728065140        5.0174921385  MEMB      74              0.0000000000
      9146        74  CHL1      C24            -9.8328477766      -34.2208698125        3.8442705691  MEMB      74              0.0000000000
      9147        74  CHL1      H24A           -8.8812770826      -34.5939874127        4.2784252900  MEMB      74              0.0000000000
      9148        74  CHL1      H24B          -10.4886080970      -35.0935918799        3.6458492477  MEMB      74              0.0000000000
      9149        74  CHL1      C25            -9.4439107607      -33.5676664792        2.5132142245  MEMB      74              0.0000000000
      9150        74  CHL1      H25           -10.3332959377      -33.0283255740        2.1081626346  MEMB      74              0.0000000000
      9151        74  CHL1      C26            -8.3017340043      -32.5930291645        2.7459567277  MEMB      74              0.0000000000
      9152        74  CHL1      H26A           -8.0486764565      -32.1788497223        1.7541407212  MEMB      74              0.0000000000
      9153        74  CHL1      H26B           -8.5862715727      -31.7642031776        3.4251558513  MEMB      74              0.0000000000
      9154        74  CHL1      H26C           -7.4054423838      -33.1060447899        3.1541341839  MEMB      74              0.0000000000
      9155        74  CHL1      C27            -8.9671378968      -34.5886202974        1.4614127126  MEMB      74              0.0000000000
      9156        74  CHL1      H27A           -9.4736911052      -35.5598989850        1.6041679201  MEMB      74              0.0000000000
      9157        74  CHL1      H27B           -9.1794247243      -34.2199066024        0.4344624891  MEMB      74              0.0000000000
      9158        74  CHL1      H27C           -7.8739659114      -34.7641675140        1.5446251758  MEMB      74              0.0000000000
      9159        75  DOPE      N              -4.7431226107       35.9193978119       18.1350017056  MEMB      75              0.0000000000
      9160        75  DOPE      HN1            -5.3309354332       36.5536872607       17.5537380990  MEMB      75              0.0000000000
      9161        75  DOPE      HN2            -4.1067874244       35.3027756150       17.5975378779  MEMB      75              0.0000000000
      9162        75  DOPE      HN3            -5.4528128728       35.3231315958       18.6283653764  MEMB      75              0.0000000000
      9163        75  DOPE      C12            -4.0649934911       36.7058380212       19.2201626981  MEMB      75              0.0000000000
      9164        75  DOPE      H12A           -3.6594532383       37.6378842330       18.7746411864  MEMB      75              0.0000000000
      9165        75  DOPE      H12B           -3.2282401408       36.0920635965       19.6150871977  MEMB      75              0.0000000000
      9166        75  DOPE      C11            -5.0626841588       37.0073917592       20.3529378564  MEMB      75              0.0000000000
      9167        75  DOPE      H11A           -4.5244117393       37.6174663451       21.1149674520  MEMB      75              0.0000000000
      9168        75  DOPE      H11B           -5.3621909601       36.0631709327       20.8702635564  MEMB      75              0.0000000000
      9169        75  DOPE      P              -7.5800374888       37.1343299867       19.4808467053  MEMB      75              0.0000000000
      9170        75  DOPE      O13            -8.4857211727       37.1279778113       20.6557084910  MEMB      75              0.0000000000
      9171        75  DOPE      O14            -7.3190351264       35.8455273119       18.8000201913  MEMB      75              0.0000000000
      9172        75  DOPE      O11            -8.0431714022       38.1712547453       18.3909084267  MEMB      75              0.0000000000
      9173        75  DOPE      O12            -6.1818882825       37.7503336376       19.8806163844  MEMB      75              0.0000000000
      9174        75  DOPE      C1             -7.1891026380       38.4414035379       17.2714898031  MEMB      75              0.0000000000
      9175        75  DOPE      HA             -6.6341303857       37.5384990264       16.9314410479  MEMB      75              0.0000000000
      9176        75  DOPE      HB             -6.4603905307       39.2335755129       17.5588377529  MEMB      75              0.0000000000
      9177        75  DOPE      C2             -7.9736976454       38.9582319750       16.0324859249  MEMB      75              0.0000000000
      9178        75  DOPE      HS             -8.7228670922       39.6861678121       16.4242490920  MEMB      75              0.0000000000
      9179        75  DOPE      O21            -8.6051983420       37.8834588708       15.3174972000  MEMB      75              0.0000000000
      9180        75  DOPE      C21            -9.7542953231       37.4657892102       15.8088676355  MEMB      75              0.0000000000
      9181        75  DOPE      O22           -10.3249483261       37.9044890453       16.7923754764  MEMB      75              0.0000000000
      9182        75  DOPE      C22           -10.4030361325       36.5040431536       14.7998379721  MEMB      75              0.0000000000
      9183        75  DOPE      H2R           -10.4397427474       35.5432836383       15.3623609272  MEMB      75              0.0000000000
      9184        75  DOPE      H2S            -9.7445158893       36.3519957288       13.9284326536  MEMB      75              0.0000000000
      9185        75  DOPE      C3             -7.1075222181       39.7530024636       14.9994623948  MEMB      75              0.0000000000
      9186        75  DOPE      HX             -6.4979332816       40.5212680305       15.5244600684  MEMB      75              0.0000000000
      9187        75  DOPE      HY             -7.8227591221       40.3082963838       14.3565892476  MEMB      75              0.0000000000
      9188        75  DOPE      O31            -6.3161467416       38.9144888141       14.1255300769  MEMB      75              0.0000000000
      9189        75  DOPE      C31            -5.1971741521       38.4702299237       14.6490661230  MEMB      75              0.0000000000
      9190        75  DOPE      O32            -4.7605252065       38.7383275475       15.7573610764  MEMB      75              0.0000000000
      9191        75  DOPE      C32            -4.5007200844       37.4754880720       13.7348543835  MEMB      75              0.0000000000
      9192        75  DOPE      H2X            -3.4238480408       37.5362572560       14.0088061987  MEMB      75              0.0000000000
      9193        75  DOPE      H2Y            -4.8435366844       36.4489056189       13.9685484282  MEMB      75              0.0000000000
      9194        75  DOPE      C23           -11.8772949988       36.8653731475       14.3939779894  MEMB      75              0.0000000000
      9195        75  DOPE      H3R           -12.3623372428       37.4451831616       15.2123554788  MEMB      75              0.0000000000
      9196        75  DOPE      H3S           -12.4250200915       35.9046632531       14.3347647316  MEMB      75              0.0000000000
      9197        75  DOPE      C24           -12.2348783696       37.5201239976       13.0339664568  MEMB      75              0.0000000000
      9198        75  DOPE      H4R           -12.1622297643       38.6107274108       13.1224537666  MEMB      75              0.0000000000
      9199        75  DOPE      H4S           -13.3310139410       37.3462299391       12.8946163276  MEMB      75              0.0000000000
      9200        75  DOPE      C25           -11.5494452042       36.9832105953       11.7550037118  MEMB      75              0.0000000000
      9201        75  DOPE      H5R           -12.2521107315       36.2518259983       11.2970674357  MEMB      75              0.0000000000
      9202        75  DOPE      H5S           -10.6232495905       36.4348896035       12.0145489276  MEMB      75              0.0000000000
      9203        75  DOPE      C26           -11.1851736319       38.0405502473       10.6893183588  MEMB      75              0.0000000000
      9204        75  DOPE      H6R           -10.3389554286       38.6513226929       11.0606730416  MEMB      75              0.0000000000
      9205        75  DOPE      H6S           -12.0523275744       38.7198853574       10.5250452194  MEMB      75              0.0000000000
      9206        75  DOPE      C27           -10.7567534133       37.4743524211        9.3208165285  MEMB      75              0.0000000000
      9207        75  DOPE      H7R           -10.7815485931       38.2898295845        8.5619060040  MEMB      75              0.0000000000
      9208        75  DOPE      H7S           -11.5007847632       36.7080531654        9.0083197704  MEMB      75              0.0000000000
      9209        75  DOPE      C28            -9.3477710024       36.8434654214        9.2868186270  MEMB      75              0.0000000000
      9210        75  DOPE      H8R            -9.2430325455       36.3431645712        8.3005780223  MEMB      75              0.0000000000
      9211        75  DOPE      H8S            -9.3185105242       36.0282522365       10.0442229099  MEMB      75              0.0000000000
      9212        75  DOPE      C29            -8.1843951338       37.7808364626        9.5235588482  MEMB      75              0.0000000000
      9213        75  DOPE      H9R            -8.0347708049       38.0416732876       10.5825917077  MEMB      75              0.0000000000
      9214        75  DOPE      C210           -7.3851958619       38.3663818524        8.6060282134  MEMB      75              0.0000000000
      9215        75  DOPE      H10R           -6.6166973788       39.0673970476        8.9682391742  MEMB      75              0.0000000000
      9216        75  DOPE      C211           -7.4551829511       38.2466400433        7.0915081965  MEMB      75              0.0000000000
      9217        75  DOPE      H11R           -8.1283672734       37.4217688488        6.7824507294  MEMB      75              0.0000000000
      9218        75  DOPE      H11S           -6.4525567260       38.0165412237        6.6649011251  MEMB      75              0.0000000000
      9219        75  DOPE      C212           -7.9910936733       39.6236129498        6.5995770133  MEMB      75              0.0000000000
      9220        75  DOPE      H12R           -7.1762911446       40.3791859580        6.6078274171  MEMB      75              0.0000000000
      9221        75  DOPE      H12S           -8.7184732372       39.9117094668        7.3758992351  MEMB      75              0.0000000000
      9222        75  DOPE      C213           -8.8989137973       39.7923017586        5.3527753757  MEMB      75              0.0000000000
      9223        75  DOPE      H13R           -8.3672537351       40.2390724601        4.4984979124  MEMB      75              0.0000000000
      9224        75  DOPE      H13S           -9.6887912008       40.5298086524        5.6038589137  MEMB      75              0.0000000000
      9225        75  DOPE      C214           -9.6917298918       38.5657346125        4.9642142761  MEMB      75              0.0000000000
      9226        75  DOPE      H14R          -10.3869503738       38.3630537166        5.8120440986  MEMB      75              0.0000000000
      9227        75  DOPE      H14S           -9.0069288775       37.6999169383        4.8687660081  MEMB      75              0.0000000000
      9228        75  DOPE      C215          -10.5038736944       38.6473902918        3.6640730949  MEMB      75              0.0000000000
      9229        75  DOPE      H15R           -9.8063859384       38.5656700552        2.7999663607  MEMB      75              0.0000000000
      9230        75  DOPE      H15S          -11.0784195446       39.5910234006        3.5522467069  MEMB      75              0.0000000000
      9231        75  DOPE      C216          -11.4405222139       37.4422182443        3.7446438045  MEMB      75              0.0000000000
      9232        75  DOPE      H16R          -12.1569436052       37.5791931157        4.5828823269  MEMB      75              0.0000000000
      9233        75  DOPE      H16S          -10.7634066732       36.5956845725        4.0252645614  MEMB      75              0.0000000000
      9234        75  DOPE      C217          -12.1732124673       36.9752601296        2.4884581575  MEMB      75              0.0000000000
      9235        75  DOPE      H17R          -12.3705177030       35.9066170345        2.7143109053  MEMB      75              0.0000000000
      9236        75  DOPE      H17S          -11.5101590128       37.0149775652        1.5985131077  MEMB      75              0.0000000000
      9237        75  DOPE      C218          -13.5637391305       37.5499073672        2.2110555502  MEMB      75              0.0000000000
      9238        75  DOPE      H18R          -14.1782799033       37.5443932885        3.1355319806  MEMB      75              0.0000000000
      9239        75  DOPE      H18S          -14.0686623516       36.9035868109        1.4578658300  MEMB      75              0.0000000000
      9240        75  DOPE      H18T          -13.5229866434       38.5827631839        1.8168375271  MEMB      75              0.0000000000
      9241        75  DOPE      C33            -4.6192577953       37.7457802988       12.2236496980  MEMB      75              0.0000000000
      9242        75  DOPE      H3X            -4.6552116167       38.8384726953       12.0242441349  MEMB      75              0.0000000000
      9243        75  DOPE      H3Y            -5.5623126116       37.3295764342       11.8098059636  MEMB      75              0.0000000000
      9244        75  DOPE      C34            -3.3810319540       37.1676869564       11.5260416297  MEMB      75              0.0000000000
      9245        75  DOPE      H4X            -3.3111600533       37.5185881604       10.4745035259  MEMB      75              0.0000000000
      9246        75  DOPE      H4Y            -2.5068996758       37.5628877608       12.0730906585  MEMB      75              0.0000000000
      9247        75  DOPE      C35            -3.2773896231       35.6454519552       11.5563229787  MEMB      75              0.0000000000
      9248        75  DOPE      H5X            -3.1087537555       35.3296954257       12.6027770244  MEMB      75              0.0000000000
      9249        75  DOPE      H5Y            -2.4051268081       35.3050458321       10.9518706186  MEMB      75              0.0000000000
      9250        75  DOPE      C36            -4.5460265147       34.9793827572       11.0450370370  MEMB      75              0.0000000000
      9251        75  DOPE      H6X            -5.3842031017       35.1933482961       11.7477462887  MEMB      75              0.0000000000
      9252        75  DOPE      H6Y            -4.3994497959       33.8774818061       11.0506580744  MEMB      75              0.0000000000
      9253        75  DOPE      C37            -4.9247218720       35.4835952325        9.6468700767  MEMB      75              0.0000000000
      9254        75  DOPE      H7X            -4.9210604321       36.5955334000        9.6149765115  MEMB      75              0.0000000000
      9255        75  DOPE      H7Y            -4.1733680005       35.1356879465        8.9052665537  MEMB      75              0.0000000000
      9256        75  DOPE      C38            -6.3440755164       35.0850401246        9.2728266289  MEMB      75              0.0000000000
      9257        75  DOPE      H8X            -6.6154542878       35.6382525220        8.3441229846  MEMB      75              0.0000000000
      9258        75  DOPE      H8Y            -7.0295209465       35.4147279974       10.0846808463  MEMB      75              0.0000000000
      9259        75  DOPE      C39            -6.4219418255       33.6022213591        9.1078406567  MEMB      75              0.0000000000
      9260        75  DOPE      H9X            -5.8121455160       33.0054321709        9.8011485456  MEMB      75              0.0000000000
      9261        75  DOPE      C310           -7.1533760315       32.9879609878        8.1826837844  MEMB      75              0.0000000000
      9262        75  DOPE      H10X           -7.0955079274       31.8991351411        8.1035033045  MEMB      75              0.0000000000
      9263        75  DOPE      C311           -8.0160039483       33.6651117818        7.1623461026  MEMB      75              0.0000000000
      9264        75  DOPE      H11X           -9.0003128896       33.1587966927        7.1411205771  MEMB      75              0.0000000000
      9265        75  DOPE      H11Y           -8.2161678992       34.7374623458        7.3799062961  MEMB      75              0.0000000000
      9266        75  DOPE      C312           -7.3486917112       33.5827892453        5.7932527384  MEMB      75              0.0000000000
      9267        75  DOPE      H12X           -6.9610486671       32.5549378156        5.6037889822  MEMB      75              0.0000000000
      9268        75  DOPE      H12Y           -6.4857185436       34.2857178345        5.7439345779  MEMB      75              0.0000000000
      9269        75  DOPE      C313           -8.3458553785       33.9088241945        4.6911785920  MEMB      75              0.0000000000
      9270        75  DOPE      H13X           -9.1583298773       33.1500743147        4.7300869758  MEMB      75              0.0000000000
      9271        75  DOPE      H13Y           -8.8246182171       34.8955335793        4.8608891358  MEMB      75              0.0000000000
      9272        75  DOPE      C314           -7.6912997309       33.8154783384        3.3185471855  MEMB      75              0.0000000000
      9273        75  DOPE      H14X           -8.5041756707       33.8596881000        2.5572427150  MEMB      75              0.0000000000
      9274        75  DOPE      H14Y           -7.1481937348       32.8461339860        3.2590047820  MEMB      75              0.0000000000
      9275        75  DOPE      C315           -6.7190994072       34.9178423948        2.9509506662  MEMB      75              0.0000000000
      9276        75  DOPE      H15X           -6.4191578277       34.7978414698        1.8834949826  MEMB      75              0.0000000000
      9277        75  DOPE      H15Y           -5.7924724657       34.8494889598        3.5647228428  MEMB      75              0.0000000000
      9278        75  DOPE      C316           -7.3920559808       36.2614067742        3.1836584733  MEMB      75              0.0000000000
      9279        75  DOPE      H16X           -7.3975315430       36.4200985235        4.2860566311  MEMB      75              0.0000000000
      9280        75  DOPE      H16Y           -8.4457005275       36.2548918053        2.8222307583  MEMB      75              0.0000000000
      9281        75  DOPE      C317           -6.6223752211       37.3919528778        2.5457232926  MEMB      75              0.0000000000
      9282        75  DOPE      H17X           -5.5669580636       37.0491740810        2.4657313964  MEMB      75              0.0000000000
      9283        75  DOPE      H17Y           -7.0251885850       37.5742046180        1.5224230989  MEMB      75              0.0000000000
      9284        75  DOPE      C318           -6.6632894644       38.6762258887        3.3556428524  MEMB      75              0.0000000000
      9285        75  DOPE      H18X           -7.5580182469       39.2477972972        3.0395111309  MEMB      75              0.0000000000
      9286        75  DOPE      H18Y           -6.7113642255       38.4598062126        4.4429937634  MEMB      75              0.0000000000
      9287        75  DOPE      H18Z           -5.7818872846       39.3197050449        3.1959259445  MEMB      75              0.0000000000
      9288        76  DOPC      N             -26.8038789510      -24.9047754692       20.2192304175  MEMB      76              0.0000000000
      9289        76  DOPC      C12           -25.9167269214      -25.1278335135       18.9938509053  MEMB      76              0.0000000000
      9290        76  DOPC      H12A          -25.0282663647      -24.5220372136       19.0680862278  MEMB      76              0.0000000000
      9291        76  DOPC      H12B          -26.4677194300      -24.8307010865       18.1104984589  MEMB      76              0.0000000000
      9292        76  DOPC      C13           -26.0797444698      -25.2797208570       21.4819058891  MEMB      76              0.0000000000
      9293        76  DOPC      H13A          -25.1073805379      -24.8126160987       21.5773299469  MEMB      76              0.0000000000
      9294        76  DOPC      H13B          -26.6770772758      -25.0498281939       22.3612765814  MEMB      76              0.0000000000
      9295        76  DOPC      H13C          -25.8894165871      -26.3482547757       21.4678877689  MEMB      76              0.0000000000
      9296        76  DOPC      C14           -28.0068805685      -25.7859665716       20.1072062164  MEMB      76              0.0000000000
      9297        76  DOPC      H14A          -28.5666145899      -25.5532485858       19.2125404876  MEMB      76              0.0000000000
      9298        76  DOPC      H14B          -27.6454599507      -26.8111941280       19.9673837961  MEMB      76              0.0000000000
      9299        76  DOPC      H14C          -28.6128695300      -25.7586944503       21.0016753503  MEMB      76              0.0000000000
      9300        76  DOPC      C15           -27.3051016638      -23.5226184571       20.3094578904  MEMB      76              0.0000000000
      9301        76  DOPC      H15A          -27.8274741214      -23.2198880644       19.4169030559  MEMB      76              0.0000000000
      9302        76  DOPC      H15B          -26.5153015265      -22.8318474294       20.5654116396  MEMB      76              0.0000000000
      9303        76  DOPC      H15C          -28.0014160701      -23.4212082314       21.1508001336  MEMB      76              0.0000000000
      9304        76  DOPC      C11           -25.4498509542      -26.5692686654       18.6800848449  MEMB      76              0.0000000000
      9305        76  DOPC      H11A          -24.8506687920      -26.5405327608       17.7377194208  MEMB      76              0.0000000000
      9306        76  DOPC      H11B          -24.7900648866      -26.9469441733       19.4951199626  MEMB      76              0.0000000000
      9307        76  DOPC      P             -26.4440042794      -28.9110679405       18.0961833403  MEMB      76              0.0000000000
      9308        76  DOPC      O13           -27.7436017751      -29.3293473320       17.5416632342  MEMB      76              0.0000000000
      9309        76  DOPC      O14           -25.9689872411      -29.6054063386       19.3168790885  MEMB      76              0.0000000000
      9310        76  DOPC      O12           -26.5848169629      -27.3981418914       18.4925615586  MEMB      76              0.0000000000
      9311        76  DOPC      O11           -25.3312446328      -28.8863639840       16.9634595215  MEMB      76              0.0000000000
      9312        76  DOPC      C1            -23.9701226316      -29.2523599324       17.1706164825  MEMB      76              0.0000000000
      9313        76  DOPC      HA            -23.9058927570      -30.2655406363       17.6315842723  MEMB      76              0.0000000000
      9314        76  DOPC      HB            -23.4810903636      -28.5276641223       17.8630824362  MEMB      76              0.0000000000
      9315        76  DOPC      C2            -23.1362358160      -29.2663913082       15.8403497014  MEMB      76              0.0000000000
      9316        76  DOPC      HS            -22.1198281973      -29.6243220325       16.1155326000  MEMB      76              0.0000000000
      9317        76  DOPC      O21           -23.0656634294      -27.9345106291       15.3011569752  MEMB      76              0.0000000000
      9318        76  DOPC      C21           -22.2472494944      -27.7859094684       14.2778403498  MEMB      76              0.0000000000
      9319        76  DOPC      O22           -21.4495341441      -28.6055835994       13.8642181709  MEMB      76              0.0000000000
      9320        76  DOPC      C22           -22.5314527407      -26.4549449650       13.6509603246  MEMB      76              0.0000000000
      9321        76  DOPC      H2R           -22.0402043884      -25.6653759051       14.2482996089  MEMB      76              0.0000000000
      9322        76  DOPC      H2S           -23.6327678606      -26.2928917460       13.6411473480  MEMB      76              0.0000000000
      9323        76  DOPC      C3            -23.7040189106      -30.2506832814       14.7597747907  MEMB      76              0.0000000000
      9324        76  DOPC      HX            -23.7254511553      -31.2177744749       15.2869518397  MEMB      76              0.0000000000
      9325        76  DOPC      HY            -23.0027496919      -30.3957198768       13.9091570657  MEMB      76              0.0000000000
      9326        76  DOPC      O31           -25.0374575114      -29.9292685772       14.3218578049  MEMB      76              0.0000000000
      9327        76  DOPC      C31           -25.1788972044      -29.3406838633       13.1440677546  MEMB      76              0.0000000000
      9328        76  DOPC      O32           -24.3141240093      -29.2053752712       12.2975330568  MEMB      76              0.0000000000
      9329        76  DOPC      C32           -26.6150811715      -28.8296971987       13.0361582223  MEMB      76              0.0000000000
      9330        76  DOPC      H2X           -27.2892881240      -29.6871557092       12.8441267320  MEMB      76              0.0000000000
      9331        76  DOPC      H2Y           -26.8850900261      -28.4084085203       14.0331499319  MEMB      76              0.0000000000
      9332        76  DOPC      C23           -22.0284056269      -26.4772111177       12.2151723775  MEMB      76              0.0000000000
      9333        76  DOPC      H3R           -22.4527425766      -27.3536410345       11.6661686101  MEMB      76              0.0000000000
      9334        76  DOPC      H3S           -20.9188134344      -26.5796181817       12.1774623807  MEMB      76              0.0000000000
      9335        76  DOPC      C24           -22.4779809170      -25.2132857317       11.5093379644  MEMB      76              0.0000000000
      9336        76  DOPC      H4R           -21.9090113249      -24.3671341710       11.9522997280  MEMB      76              0.0000000000
      9337        76  DOPC      H4S           -23.5571147519      -25.0100146707       11.6763987716  MEMB      76              0.0000000000
      9338        76  DOPC      C25           -22.1933667245      -25.3530352658       10.0273739337  MEMB      76              0.0000000000
      9339        76  DOPC      H5R           -21.2411158918      -25.9253044501        9.9174581908  MEMB      76              0.0000000000
      9340        76  DOPC      H5S           -22.0322289095      -24.3502669477        9.5928472821  MEMB      76              0.0000000000
      9341        76  DOPC      C26           -23.2898044667      -26.0589705932        9.2186784708  MEMB      76              0.0000000000
      9342        76  DOPC      H6R           -24.0692227894      -25.3090232959        8.9553837682  MEMB      76              0.0000000000
      9343        76  DOPC      H6S           -23.7758865704      -26.8685641577        9.8059147127  MEMB      76              0.0000000000
      9344        76  DOPC      C27           -22.6192783845      -26.6265959502        7.9604912765  MEMB      76              0.0000000000
      9345        76  DOPC      H7R           -22.0344819373      -27.5311897823        8.2314831165  MEMB      76              0.0000000000
      9346        76  DOPC      H7S           -21.8694306538      -25.8515144516        7.6893600706  MEMB      76              0.0000000000
      9347        76  DOPC      C28           -23.5094195787      -26.8590331927        6.7296320695  MEMB      76              0.0000000000
      9348        76  DOPC      H8R           -24.3844124681      -27.5008928064        6.9715953539  MEMB      76              0.0000000000
      9349        76  DOPC      H8S           -22.8956112129      -27.3840969026        5.9621078786  MEMB      76              0.0000000000
      9350        76  DOPC      C29           -23.8498514525      -25.4771591301        6.2362177183  MEMB      76              0.0000000000
      9351        76  DOPC      H9R           -22.9485380727      -24.8878753883        6.0520227879  MEMB      76              0.0000000000
      9352        76  DOPC      C210          -24.9707026534      -24.9912680887        5.7025068562  MEMB      76              0.0000000000
      9353        76  DOPC      H10R          -24.9808114933      -23.9517918317        5.3378271620  MEMB      76              0.0000000000
      9354        76  DOPC      C211          -26.2133564186      -25.7767897120        5.4449554786  MEMB      76              0.0000000000
      9355        76  DOPC      H11R          -27.1452962575      -25.2854122513        5.8054484233  MEMB      76              0.0000000000
      9356        76  DOPC      H11S          -26.1821789492      -26.7947140494        5.8969437841  MEMB      76              0.0000000000
      9357        76  DOPC      C212          -26.2543353647      -25.8277311758        3.9063732381  MEMB      76              0.0000000000
      9358        76  DOPC      H12R          -26.6510387199      -24.8749088387        3.5089992441  MEMB      76              0.0000000000
      9359        76  DOPC      H12S          -27.0094890704      -26.5894325627        3.6571569518  MEMB      76              0.0000000000
      9360        76  DOPC      C213          -24.9310846235      -26.1094078045        3.1505939548  MEMB      76              0.0000000000
      9361        76  DOPC      H13R          -24.3149170159      -26.8163971281        3.7601372854  MEMB      76              0.0000000000
      9362        76  DOPC      H13S          -24.3188335746      -25.1891983685        3.0361495698  MEMB      76              0.0000000000
      9363        76  DOPC      C214          -25.1799158109      -26.7816843019        1.7945709710  MEMB      76              0.0000000000
      9364        76  DOPC      H14R          -26.1459095166      -27.2658264287        1.8153923124  MEMB      76              0.0000000000
      9365        76  DOPC      H14S          -24.4647889916      -27.5914816189        1.6557576789  MEMB      76              0.0000000000
      9366        76  DOPC      C215          -25.5687020325      -25.9722727573        0.5758815806  MEMB      76              0.0000000000
      9367        76  DOPC      H15R          -24.7508211896      -25.3452889260        0.1555840878  MEMB      76              0.0000000000
      9368        76  DOPC      H15S          -26.3265244802      -25.2557027825        0.9454346915  MEMB      76              0.0000000000
      9369        76  DOPC      C216          -26.1824775339      -26.8584042796       -0.5521934765  MEMB      76              0.0000000000
      9370        76  DOPC      H16R          -25.3655268392      -27.3388516995       -1.1177354543  MEMB      76              0.0000000000
      9371        76  DOPC      H16S          -26.6787905349      -26.0919566306       -1.1774002635  MEMB      76              0.0000000000
      9372        76  DOPC      C217          -27.2775916193      -27.9523535847       -0.4086701995  MEMB      76              0.0000000000
      9373        76  DOPC      H17R          -27.7328124703      -27.9949563301        0.5976376439  MEMB      76              0.0000000000
      9374        76  DOPC      H17S          -26.8213367108      -28.9592741550       -0.5756496453  MEMB      76              0.0000000000
      9375        76  DOPC      C218          -28.3738760220      -27.7380999201       -1.4758681027  MEMB      76              0.0000000000
      9376        76  DOPC      H18R          -27.9798216241      -27.9408526712       -2.4938068878  MEMB      76              0.0000000000
      9377        76  DOPC      H18S          -28.7294783058      -26.6879711210       -1.4868842373  MEMB      76              0.0000000000
      9378        76  DOPC      H18T          -29.2601147996      -28.3843252750       -1.3238109420  MEMB      76              0.0000000000
      9379        76  DOPC      C33           -26.7881230718      -27.7341014219       11.9496886249  MEMB      76              0.0000000000
      9380        76  DOPC      H3X           -25.8903268189      -27.0809689815       11.8991103487  MEMB      76              0.0000000000
      9381        76  DOPC      H3Y           -27.6208152340      -27.0844689808       12.3024300143  MEMB      76              0.0000000000
      9382        76  DOPC      C34           -27.1921952963      -28.2674660528       10.5554021196  MEMB      76              0.0000000000
      9383        76  DOPC      H4X           -27.9758564668      -29.0414461833       10.7021108497  MEMB      76              0.0000000000
      9384        76  DOPC      H4Y           -26.3202841168      -28.7819242489       10.0872371727  MEMB      76              0.0000000000
      9385        76  DOPC      C35           -27.7045425644      -27.1529301336        9.6002798191  MEMB      76              0.0000000000
      9386        76  DOPC      H5X           -26.9411758671      -26.9820997163        8.8109394907  MEMB      76              0.0000000000
      9387        76  DOPC      H5Y           -27.7364726770      -26.2163774347       10.2078690930  MEMB      76              0.0000000000
      9388        76  DOPC      C36           -29.0634754081      -27.3982659074        8.8484606445  MEMB      76              0.0000000000
      9389        76  DOPC      H6X           -29.6952195392      -27.9974174066        9.4886278169  MEMB      76              0.0000000000
      9390        76  DOPC      H6Y           -29.5407322624      -26.4010809291        8.6706286043  MEMB      76              0.0000000000
      9391        76  DOPC      C37           -28.9323876796      -28.3334170056        7.5947548736  MEMB      76              0.0000000000
      9392        76  DOPC      H7X           -28.1176310888      -27.7796573157        7.0769168636  MEMB      76              0.0000000000
      9393        76  DOPC      H7Y           -28.5355623883      -29.2863529480        7.9704333365  MEMB      76              0.0000000000
      9394        76  DOPC      C38           -30.0207817782      -28.7526132938        6.5667392765  MEMB      76              0.0000000000
      9395        76  DOPC      H8X           -29.4597924216      -28.4475652759        5.6377007781  MEMB      76              0.0000000000
      9396        76  DOPC      H8Y           -30.7456049173      -27.9137056411        6.5006940004  MEMB      76              0.0000000000
      9397        76  DOPC      C39           -30.7102646191      -30.1149008120        6.2657829624  MEMB      76              0.0000000000
      9398        76  DOPC      H9X           -31.6496099471      -30.1020910723        6.9194911050  MEMB      76              0.0000000000
      9399        76  DOPC      C310          -30.5885573911      -31.4734145610        5.7303985107  MEMB      76              0.0000000000
      9400        76  DOPC      H10X          -31.4891319756      -32.0719724780        5.9338786324  MEMB      76              0.0000000000
      9401        76  DOPC      C311          -29.5304637271      -32.4292112393        5.0059155378  MEMB      76              0.0000000000
      9402        76  DOPC      H11X          -30.3347571276      -33.1124837005        4.7512193965  MEMB      76              0.0000000000
      9403        76  DOPC      H11Y          -28.9957299570      -33.0026130952        5.8446548051  MEMB      76              0.0000000000
      9404        76  DOPC      C312          -28.6611418215      -33.0470433496        3.7557955353  MEMB      76              0.0000000000
      9405        76  DOPC      H12X          -29.3394566219      -32.9737543608        2.8886715220  MEMB      76              0.0000000000
      9406        76  DOPC      H12Y          -28.6883940408      -34.1515830512        4.0022312681  MEMB      76              0.0000000000
      9407        76  DOPC      C313          -27.1294962544      -33.0044777034        3.1058019579  MEMB      76              0.0000000000
      9408        76  DOPC      H13X          -26.8808970758      -34.0851268952        3.0642498629  MEMB      76              0.0000000000
      9409        76  DOPC      H13Y          -27.2323675592      -32.6143810990        2.0785515265  MEMB      76              0.0000000000
      9410        76  DOPC      C314          -25.7367867455      -32.3449634476        3.5361629823  MEMB      76              0.0000000000
      9411        76  DOPC      H14X          -25.3679629974      -32.8863415539        4.4215474525  MEMB      76              0.0000000000
      9412        76  DOPC      H14Y          -26.0913959094      -31.3731506442        3.7491607308  MEMB      76              0.0000000000
      9413        76  DOPC      C315          -24.3860094490      -31.8903085452        2.7686530353  MEMB      76              0.0000000000
      9414        76  DOPC      H15X          -23.5485819218      -32.5951355525        2.9144199768  MEMB      76              0.0000000000
      9415        76  DOPC      H15Y          -24.0550780700      -31.0214790640        3.4054142675  MEMB      76              0.0000000000
      9416        76  DOPC      C316          -24.3435200810      -31.2386788484        1.3537738033  MEMB      76              0.0000000000
      9417        76  DOPC      H16X          -25.3395198180      -31.3621307789        0.9150809526  MEMB      76              0.0000000000
      9418        76  DOPC      H16Y          -24.3566900334      -30.1419732051        1.5094195682  MEMB      76              0.0000000000
      9419        76  DOPC      C317          -23.1563527626      -31.5488432630        0.3184054173  MEMB      76              0.0000000000
      9420        76  DOPC      H17X          -23.5155736437      -32.0966958011       -0.5617678295  MEMB      76              0.0000000000
      9421        76  DOPC      H17Y          -22.8605904584      -30.6356221100       -0.1961622758  MEMB      76              0.0000000000
      9422        76  DOPC      C318          -21.9251210534      -32.4227134352        0.6345103717  MEMB      76              0.0000000000
      9423        76  DOPC      H18X          -21.8766257936      -32.7252345784        1.6951214668  MEMB      76              0.0000000000
      9424        76  DOPC      H18Y          -21.9668351656      -33.3563718368        0.0275241794  MEMB      76              0.0000000000
      9425        76  DOPC      H18Z          -20.9905132229      -31.9092109959        0.3283090465  MEMB      76              0.0000000000
      9426        77  DOPC      N              23.0257904317      -30.7156191052       21.0079903964  MEMB      77              0.0000000000
      9427        77  DOPC      C12            22.8498444909      -31.9991616612       20.2018790597  MEMB      77              0.0000000000
      9428        77  DOPC      H12A           21.8096493694      -32.3045802229       20.2819138070  MEMB      77              0.0000000000
      9429        77  DOPC      H12B           23.4885157222      -32.7844342397       20.6005269745  MEMB      77              0.0000000000
      9430        77  DOPC      C13            23.8724744161      -29.7543171947       20.2552442694  MEMB      77              0.0000000000
      9431        77  DOPC      H13A           24.8607829849      -30.1460532888       20.0687312172  MEMB      77              0.0000000000
      9432        77  DOPC      H13B           23.4131243482      -29.6171517734       19.2643396958  MEMB      77              0.0000000000
      9433        77  DOPC      H13C           23.8918205664      -28.7765453587       20.7092722485  MEMB      77              0.0000000000
      9434        77  DOPC      C14            23.5800836147      -31.0147701387       22.3471203557  MEMB      77              0.0000000000
      9435        77  DOPC      H14A           24.5712790501      -31.4566955060       22.2669595324  MEMB      77              0.0000000000
      9436        77  DOPC      H14B           23.6176601926      -30.1223477072       22.9699916601  MEMB      77              0.0000000000
      9437        77  DOPC      H14C           22.9278039647      -31.7131941937       22.8574637535  MEMB      77              0.0000000000
      9438        77  DOPC      C15            21.6885186446      -30.0371406444       21.1040245948  MEMB      77              0.0000000000
      9439        77  DOPC      H15A           21.3723885426      -29.7462393988       20.1003066291  MEMB      77              0.0000000000
      9440        77  DOPC      H15B           21.7276261338      -29.1310226448       21.7056853443  MEMB      77              0.0000000000
      9441        77  DOPC      H15C           20.9229190276      -30.6905038079       21.4911779947  MEMB      77              0.0000000000
      9442        77  DOPC      C11            23.1591287179      -31.9400439549       18.6959934390  MEMB      77              0.0000000000
      9443        77  DOPC      H11A           24.2500942078      -31.8591385789       18.5499351043  MEMB      77              0.0000000000
      9444        77  DOPC      H11B           22.8361271462      -32.8970313317       18.2149769858  MEMB      77              0.0000000000
      9445        77  DOPC      P              21.3608437775      -30.9131020870       17.1209074467  MEMB      77              0.0000000000
      9446        77  DOPC      O13            20.8853251777      -29.5614723230       16.7662183143  MEMB      77              0.0000000000
      9447        77  DOPC      O14            20.3760322156      -31.8133025166       17.7491763752  MEMB      77              0.0000000000
      9448        77  DOPC      O12            22.5772860554      -30.7996106961       18.0997141379  MEMB      77              0.0000000000
      9449        77  DOPC      O11            22.0468763917      -31.5937376693       15.8753157750  MEMB      77              0.0000000000
      9450        77  DOPC      C1             23.3940899010      -31.2937221599       15.4909172365  MEMB      77              0.0000000000
      9451        77  DOPC      HA             23.6598021131      -31.9802525748       14.6550362935  MEMB      77              0.0000000000
      9452        77  DOPC      HB             24.1049770977      -31.4965559087       16.3128830866  MEMB      77              0.0000000000
      9453        77  DOPC      C2             23.5912329097      -29.8404506891       14.9832133178  MEMB      77              0.0000000000
      9454        77  DOPC      HS             23.3313708129      -29.1399221245       15.8115479829  MEMB      77              0.0000000000
      9455        77  DOPC      O21            22.7188526947      -29.7152848082       13.8781021678  MEMB      77              0.0000000000
      9456        77  DOPC      C21            22.1911194093      -28.5399344572       13.6739815149  MEMB      77              0.0000000000
      9457        77  DOPC      O22            22.4967678395      -27.4951990241       14.2126679109  MEMB      77              0.0000000000
      9458        77  DOPC      C22            21.1728297003      -28.6841733245       12.5501164904  MEMB      77              0.0000000000
      9459        77  DOPC      H2R            21.2729539137      -27.8007449853       11.8874389509  MEMB      77              0.0000000000
      9460        77  DOPC      H2S            20.1665865360      -28.6618695465       13.0123140395  MEMB      77              0.0000000000
      9461        77  DOPC      C3             25.0499738377      -29.5760317225       14.5163190195  MEMB      77              0.0000000000
      9462        77  DOPC      HX             25.2673087846      -30.3475037366       13.7440805750  MEMB      77              0.0000000000
      9463        77  DOPC      HY             25.7474612304      -29.7440757166       15.3637412854  MEMB      77              0.0000000000
      9464        77  DOPC      O31            25.2820013356      -28.2988624915       13.8914328510  MEMB      77              0.0000000000
      9465        77  DOPC      C31            25.3634035462      -27.2463107945       14.6953167492  MEMB      77              0.0000000000
      9466        77  DOPC      O32            25.1423265001      -27.2514342304       15.8929671180  MEMB      77              0.0000000000
      9467        77  DOPC      C32            25.9715740248      -26.0510837368       13.9539513874  MEMB      77              0.0000000000
      9468        77  DOPC      H2X            25.3754601275      -25.1411003795       14.1675277457  MEMB      77              0.0000000000
      9469        77  DOPC      H2Y            26.9518945476      -25.8980365496       14.4625447233  MEMB      77              0.0000000000
      9470        77  DOPC      C23            21.3754417520      -29.9855859391       11.7438483588  MEMB      77              0.0000000000
      9471        77  DOPC      H3R            20.4841734318      -30.0993263043       11.0975601956  MEMB      77              0.0000000000
      9472        77  DOPC      H3S            21.3952280457      -30.8906393216       12.3907263224  MEMB      77              0.0000000000
      9473        77  DOPC      C24            22.6446385882      -29.9185572242       10.8843468614  MEMB      77              0.0000000000
      9474        77  DOPC      H4R            23.5567549419      -29.8472336203       11.5219958827  MEMB      77              0.0000000000
      9475        77  DOPC      H4S            22.5921490175      -28.9705252212       10.3102703054  MEMB      77              0.0000000000
      9476        77  DOPC      C25            22.7836684146      -31.1186945316        9.9359529867  MEMB      77              0.0000000000
      9477        77  DOPC      H5R            22.9490939020      -32.0275857385       10.5610511093  MEMB      77              0.0000000000
      9478        77  DOPC      H5S            23.7006213687      -30.9956633300        9.3138732220  MEMB      77              0.0000000000
      9479        77  DOPC      C26            21.5671651187      -31.3563547371        9.0020005887  MEMB      77              0.0000000000
      9480        77  DOPC      H6R            20.8273332503      -31.9743661494        9.5548825702  MEMB      77              0.0000000000
      9481        77  DOPC      H6S            21.9337088259      -31.9802519517        8.1556174024  MEMB      77              0.0000000000
      9482        77  DOPC      C27            20.8575102695      -30.1043621303        8.3897206002  MEMB      77              0.0000000000
      9483        77  DOPC      H7R            20.3600771298      -29.5136348046        9.1807579516  MEMB      77              0.0000000000
      9484        77  DOPC      H7S            20.0809515566      -30.4631213171        7.6827087434  MEMB      77              0.0000000000
      9485        77  DOPC      C28            21.8596072747      -29.2299639122        7.5931666578  MEMB      77              0.0000000000
      9486        77  DOPC      H8R            22.1739153217      -29.8873329647        6.7730940204  MEMB      77              0.0000000000
      9487        77  DOPC      H8S            22.6689595633      -29.2159303212        8.3311476157  MEMB      77              0.0000000000
      9488        77  DOPC      C29            21.8801403372      -27.7971457905        7.0842339341  MEMB      77              0.0000000000
      9489        77  DOPC      H9R            21.8807232985      -27.0387188849        7.8800783453  MEMB      77              0.0000000000
      9490        77  DOPC      C210           22.0380650138      -27.3292326198        5.8232511585  MEMB      77              0.0000000000
      9491        77  DOPC      H10R           22.0482383601      -26.2380620414        5.6770594430  MEMB      77              0.0000000000
      9492        77  DOPC      C211           22.2195249083      -28.1030765032        4.5330637653  MEMB      77              0.0000000000
      9493        77  DOPC      H11R           21.2561466339      -28.0914046166        3.9775164902  MEMB      77              0.0000000000
      9494        77  DOPC      H11S           22.4517782190      -29.1813496452        4.6987787186  MEMB      77              0.0000000000
      9495        77  DOPC      C212           23.2742733401      -27.5034403341        3.5826493533  MEMB      77              0.0000000000
      9496        77  DOPC      H12R           23.5161856393      -26.4477473144        3.8354641407  MEMB      77              0.0000000000
      9497        77  DOPC      H12S           22.8725530631      -27.4906685845        2.5479719354  MEMB      77              0.0000000000
      9498        77  DOPC      C213           24.5536317103      -28.3377072467        3.5733272271  MEMB      77              0.0000000000
      9499        77  DOPC      H13R           24.3198345714      -29.4212950516        3.4783193071  MEMB      77              0.0000000000
      9500        77  DOPC      H13S           25.0581563662      -28.1585175022        4.5376937626  MEMB      77              0.0000000000
      9501        77  DOPC      C214           25.5395068281      -27.9169529056        2.4965895730  MEMB      77              0.0000000000
      9502        77  DOPC      H14R           25.8181158301      -26.8833031100        2.7264858409  MEMB      77              0.0000000000
      9503        77  DOPC      H14S           25.0056949990      -27.8651563436        1.5338202436  MEMB      77              0.0000000000
      9504        77  DOPC      C215           26.8059045990      -28.7883675979        2.4688556670  MEMB      77              0.0000000000
      9505        77  DOPC      H15R           26.5963777971      -29.7450924063        1.9486810189  MEMB      77              0.0000000000
      9506        77  DOPC      H15S           27.0947212408      -29.0295168895        3.5185356820  MEMB      77              0.0000000000
      9507        77  DOPC      C216           28.0189996068      -28.1107280478        1.8276820327  MEMB      77              0.0000000000
      9508        77  DOPC      H16R           28.1704959838      -27.1490176126        2.3342693823  MEMB      77              0.0000000000
      9509        77  DOPC      H16S           27.8498444781      -27.8528580242        0.7670365692  MEMB      77              0.0000000000
      9510        77  DOPC      C217           29.3161428044      -28.9051164103        1.9717521669  MEMB      77              0.0000000000
      9511        77  DOPC      H17R           29.3157876599      -29.7353583685        1.2327954770  MEMB      77              0.0000000000
      9512        77  DOPC      H17S           29.3680182042      -29.3405575423        2.9943646845  MEMB      77              0.0000000000
      9513        77  DOPC      C218           30.5391896218      -28.0238691879        1.7479946710  MEMB      77              0.0000000000
      9514        77  DOPC      H18R           31.4566660375      -28.6223583941        1.5733760306  MEMB      77              0.0000000000
      9515        77  DOPC      H18S           30.7052882383      -27.3539638843        2.6206663651  MEMB      77              0.0000000000
      9516        77  DOPC      H18T           30.3481624503      -27.4039820176        0.8537293026  MEMB      77              0.0000000000
      9517        77  DOPC      C33            26.2426094512      -26.2852318040       12.4309748562  MEMB      77              0.0000000000
      9518        77  DOPC      H3X            26.6737336308      -27.2849279426       12.2450860582  MEMB      77              0.0000000000
      9519        77  DOPC      H3Y            26.9897275121      -25.5219578496       12.1795643195  MEMB      77              0.0000000000
      9520        77  DOPC      C34            25.1079158403      -25.9660757147       11.4431661577  MEMB      77              0.0000000000
      9521        77  DOPC      H4X            24.9652676140      -24.8745908472       11.6490504133  MEMB      77              0.0000000000
      9522        77  DOPC      H4Y            24.1908012168      -26.5217679052       11.7303128082  MEMB      77              0.0000000000
      9523        77  DOPC      C35            25.3192759803      -26.0542245410        9.8929399418  MEMB      77              0.0000000000
      9524        77  DOPC      H5X            26.3270936303      -25.7017781682        9.6067033755  MEMB      77              0.0000000000
      9525        77  DOPC      H5Y            24.6529876304      -25.2877231131        9.4320536452  MEMB      77              0.0000000000
      9526        77  DOPC      C36            24.9251123765      -27.3869461411        9.1925994643  MEMB      77              0.0000000000
      9527        77  DOPC      H6X            25.4981357523      -28.2543411500        9.6116054527  MEMB      77              0.0000000000
      9528        77  DOPC      H6Y            23.8186105213      -27.5521066232        9.2981219136  MEMB      77              0.0000000000
      9529        77  DOPC      C37            24.9793986757      -27.4070841097        7.6364853075  MEMB      77              0.0000000000
      9530        77  DOPC      H7X            25.7749584418      -26.9454870367        7.1084346051  MEMB      77              0.0000000000
      9531        77  DOPC      H7Y            24.2658191326      -26.6533594734        7.2727155677  MEMB      77              0.0000000000
      9532        77  DOPC      C38            24.7524805297      -28.8129932496        7.0106870642  MEMB      77              0.0000000000
      9533        77  DOPC      H8X            23.9578844424      -28.7561660472        6.2607336701  MEMB      77              0.0000000000
      9534        77  DOPC      H8Y            24.4526103897      -29.3407530815        7.9305538243  MEMB      77              0.0000000000
      9535        77  DOPC      C39            25.7154738179      -29.7533454743        6.3745994621  MEMB      77              0.0000000000
      9536        77  DOPC      H9X            26.6579901462      -29.3251516347        6.0031626959  MEMB      77              0.0000000000
      9537        77  DOPC      C310           25.4295715514      -31.0332248073        6.1069635905  MEMB      77              0.0000000000
      9538        77  DOPC      H10X           26.2181676528      -31.6544650832        5.7081305042  MEMB      77              0.0000000000
      9539        77  DOPC      C311           24.1894514264      -31.8415891814        6.3189668916  MEMB      77              0.0000000000
      9540        77  DOPC      H11X           23.3040697985      -31.2439873578        6.0494500327  MEMB      77              0.0000000000
      9541        77  DOPC      H11Y           24.0770889698      -32.2232669826        7.3569057022  MEMB      77              0.0000000000
      9542        77  DOPC      C312           24.2465697916      -33.0238548906        5.3367018199  MEMB      77              0.0000000000
      9543        77  DOPC      H12X           25.0583411197      -33.7248192709        5.6395531589  MEMB      77              0.0000000000
      9544        77  DOPC      H12Y           24.4767623245      -32.6776715262        4.3014212786  MEMB      77              0.0000000000
      9545        77  DOPC      C313           22.9361897636      -33.8030570963        5.2748265682  MEMB      77              0.0000000000
      9546        77  DOPC      H13X           23.1040770630      -34.6569220266        4.5957401484  MEMB      77              0.0000000000
      9547        77  DOPC      H13Y           22.6987673227      -34.2206564290        6.2774230385  MEMB      77              0.0000000000
      9548        77  DOPC      C314           21.7258530262      -33.0177616125        4.7531284771  MEMB      77              0.0000000000
      9549        77  DOPC      H14X           20.8538528474      -33.7062310765        4.8469565871  MEMB      77              0.0000000000
      9550        77  DOPC      H14Y           21.5153204174      -32.1340725683        5.3900606036  MEMB      77              0.0000000000
      9551        77  DOPC      C315           21.8237870834      -32.5765015710        3.2835731575  MEMB      77              0.0000000000
      9552        77  DOPC      H15X           22.3165221441      -33.3804927072        2.6935887146  MEMB      77              0.0000000000
      9553        77  DOPC      H15Y           22.4549883339      -31.6668808635        3.1764867431  MEMB      77              0.0000000000
      9554        77  DOPC      C316           20.4200271403      -32.3273806377        2.7133223835  MEMB      77              0.0000000000
      9555        77  DOPC      H16X           19.6861217965      -32.9321563734        3.2946995374  MEMB      77              0.0000000000
      9556        77  DOPC      H16Y           20.1492201619      -31.2582690210        2.8496521229  MEMB      77              0.0000000000
      9557        77  DOPC      C317           20.2464098251      -32.7543467483        1.2538887120  MEMB      77              0.0000000000
      9558        77  DOPC      H17X           20.4337057753      -33.8451743234        1.1717022513  MEMB      77              0.0000000000
      9559        77  DOPC      H17Y           19.1870976901      -32.5949008448        0.9746278572  MEMB      77              0.0000000000
      9560        77  DOPC      C318           21.1070479658      -31.9971309255        0.2565007950  MEMB      77              0.0000000000
      9561        77  DOPC      H18X           20.8212213249      -30.9292568346        0.2710721183  MEMB      77              0.0000000000
      9562        77  DOPC      H18Y           22.1867619843      -32.0848877094        0.5004117115  MEMB      77              0.0000000000
      9563        77  DOPC      H18Z           20.9324521922      -32.3725230581       -0.7751263847  MEMB      77              0.0000000000
      9564        78  DOPE      N              35.2925719031        9.4957783538       19.1724064601  MEMB      78              0.0000000000
      9565        78  DOPE      HN1            34.4068978017        9.2750521971       18.6903615361  MEMB      78              0.0000000000
      9566        78  DOPE      HN2            35.8793865065       10.1371537945       18.5901022249  MEMB      78              0.0000000000
      9567        78  DOPE      HN3            35.9263234650        8.6706878432       19.3337388098  MEMB      78              0.0000000000
      9568        78  DOPE      C12            35.3243833610       10.3193485854       20.4317054325  MEMB      78              0.0000000000
      9569        78  DOPE      H12A           35.3290413316        9.6213431157       21.2852930021  MEMB      78              0.0000000000
      9570        78  DOPE      H12B           34.4182173580       10.9464489203       20.4878847377  MEMB      78              0.0000000000
      9571        78  DOPE      C11            36.5941665188       11.2043988469       20.3810864381  MEMB      78              0.0000000000
      9572        78  DOPE      H11A           37.1334705515       11.1460548585       21.3573740155  MEMB      78              0.0000000000
      9573        78  DOPE      H11B           36.2698013020       12.2684323661       20.2782846112  MEMB      78              0.0000000000
      9574        78  DOPE      P              38.4498165204        9.6686718353       19.3936496401  MEMB      78              0.0000000000
      9575        78  DOPE      O13            37.6579809902        8.4952682808       19.8439783286  MEMB      78              0.0000000000
      9576        78  DOPE      O14            39.5621584852       10.0944762781       20.2568702370  MEMB      78              0.0000000000
      9577        78  DOPE      O11            38.8525460704        9.4695652628       17.8889473090  MEMB      78              0.0000000000
      9578        78  DOPE      O12            37.4451049674       10.8870946776       19.2602998952  MEMB      78              0.0000000000
      9579        78  DOPE      C1             37.8606335507        9.5275973063       16.8462383663  MEMB      78              0.0000000000
      9580        78  DOPE      HA             37.1325078154       10.3323718649       17.0155502631  MEMB      78              0.0000000000
      9581        78  DOPE      HB             37.3147788603        8.5548987279       16.7762759105  MEMB      78              0.0000000000
      9582        78  DOPE      C2             38.5371012662        9.7639102824       15.4660789291  MEMB      78              0.0000000000
      9583        78  DOPE      HS             39.4735992760        9.1918045904       15.5959036591  MEMB      78              0.0000000000
      9584        78  DOPE      O21            38.7802643949       11.1673234094       15.1735501669  MEMB      78              0.0000000000
      9585        78  DOPE      C21            39.8419622779       11.2798092816       14.3553243284  MEMB      78              0.0000000000
      9586        78  DOPE      O22            40.6978131709       10.4256143423       14.2336641476  MEMB      78              0.0000000000
      9587        78  DOPE      C22            39.7811273287       12.5187720455       13.4742628659  MEMB      78              0.0000000000
      9588        78  DOPE      H2R            40.7580044867       13.0166813368       13.5249051915  MEMB      78              0.0000000000
      9589        78  DOPE      H2S            39.0293500981       13.2416402398       13.8361609073  MEMB      78              0.0000000000
      9590        78  DOPE      C3             37.7382631037        9.1684508789       14.2588151803  MEMB      78              0.0000000000
      9591        78  DOPE      HX             37.9138208173        8.0688231287       14.2545998416  MEMB      78              0.0000000000
      9592        78  DOPE      HY             38.2060349571        9.5481140123       13.3236483619  MEMB      78              0.0000000000
      9593        78  DOPE      O31            36.3399064442        9.5516123291       14.2375790532  MEMB      78              0.0000000000
      9594        78  DOPE      C31            35.4617010407        8.5535570046       14.2291385158  MEMB      78              0.0000000000
      9595        78  DOPE      O32            35.7444043876        7.3893701204       14.4084691271  MEMB      78              0.0000000000
      9596        78  DOPE      C32            34.0023915828        9.0417798753       14.0749081820  MEMB      78              0.0000000000
      9597        78  DOPE      H2X            33.3889363185        8.2667274011       14.5892248017  MEMB      78              0.0000000000
      9598        78  DOPE      H2Y            33.8678837745        9.9281802573       14.6840258343  MEMB      78              0.0000000000
      9599        78  DOPE      C23            39.6366195914       12.0763249220       12.0060338393  MEMB      78              0.0000000000
      9600        78  DOPE      H3R            38.6001507854       11.7490761869       11.7852793744  MEMB      78              0.0000000000
      9601        78  DOPE      H3S            40.3027439859       11.1923652978       11.8407586933  MEMB      78              0.0000000000
      9602        78  DOPE      C24            40.0779519811       13.1248257613       10.9827462877  MEMB      78              0.0000000000
      9603        78  DOPE      H4R            40.9635941822       13.6669007764       11.3508380217  MEMB      78              0.0000000000
      9604        78  DOPE      H4S            39.3340639554       13.9200504439       10.8033722021  MEMB      78              0.0000000000
      9605        78  DOPE      C25            40.4259608862       12.4098771853        9.6814621497  MEMB      78              0.0000000000
      9606        78  DOPE      H5R            39.7587399276       11.5497134057        9.4804153867  MEMB      78              0.0000000000
      9607        78  DOPE      H5S            41.3882388957       11.9123449841        9.8464911701  MEMB      78              0.0000000000
      9608        78  DOPE      C26            40.4893613383       13.3211590788        8.4614199081  MEMB      78              0.0000000000
      9609        78  DOPE      H6R            41.0661373925       12.7687696521        7.6923686755  MEMB      78              0.0000000000
      9610        78  DOPE      H6S            41.0222065056       14.2706970986        8.7073359353  MEMB      78              0.0000000000
      9611        78  DOPE      C27            39.1179057255       13.6100802010        7.8428502244  MEMB      78              0.0000000000
      9612        78  DOPE      H7R            38.7127322433       14.5033104417        8.3447506278  MEMB      78              0.0000000000
      9613        78  DOPE      H7S            38.4058762933       12.7968637036        8.1049487505  MEMB      78              0.0000000000
      9614        78  DOPE      C28            39.1032858851       13.8244514639        6.3057283017  MEMB      78              0.0000000000
      9615        78  DOPE      H8R            38.2767249488       14.5378775510        6.1024112520  MEMB      78              0.0000000000
      9616        78  DOPE      H8S            38.7980427768       12.8733919981        5.8091494042  MEMB      78              0.0000000000
      9617        78  DOPE      C29            40.3801068238       14.3462380636        5.6820764566  MEMB      78              0.0000000000
      9618        78  DOPE      H9R            41.1702048038       14.6544640074        6.3850376149  MEMB      78              0.0000000000
      9619        78  DOPE      C210           40.6076378605       14.4525556657        4.3575292517  MEMB      78              0.0000000000
      9620        78  DOPE      H10R           41.5846445812       14.8279344005        4.0095461076  MEMB      78              0.0000000000
      9621        78  DOPE      C211           39.6063197627       14.0666292430        3.2906339770  MEMB      78              0.0000000000
      9622        78  DOPE      H11R           38.5916559685       14.3241612132        3.6652640342  MEMB      78              0.0000000000
      9623        78  DOPE      H11S           39.6004964334       12.9700513126        3.1615859129  MEMB      78              0.0000000000
      9624        78  DOPE      C212           39.7779394162       14.7284666111        1.8922307908  MEMB      78              0.0000000000
      9625        78  DOPE      H12R           40.6047495083       14.2752083768        1.3103885296  MEMB      78              0.0000000000
      9626        78  DOPE      H12S           40.0767494614       15.7877095675        2.1018611170  MEMB      78              0.0000000000
      9627        78  DOPE      C213           38.4531238585       14.8173367932        1.0732148639  MEMB      78              0.0000000000
      9628        78  DOPE      H13R           38.4285162476       15.7962368999        0.5486599800  MEMB      78              0.0000000000
      9629        78  DOPE      H13S           37.6982645010       14.8277950649        1.8721339577  MEMB      78              0.0000000000
      9630        78  DOPE      C214           38.0203430513       13.6839393032        0.0938882682  MEMB      78              0.0000000000
      9631        78  DOPE      H14R           37.5847979315       12.8697109116        0.7161046662  MEMB      78              0.0000000000
      9632        78  DOPE      H14S           38.9319800180       13.2859755878       -0.3951115965  MEMB      78              0.0000000000
      9633        78  DOPE      C215           36.9590924822       14.0328281848       -1.0211499320  MEMB      78              0.0000000000
      9634        78  DOPE      H15R           36.8526586304       13.1761016505       -1.7147086956  MEMB      78              0.0000000000
      9635        78  DOPE      H15S           37.3753727750       14.8854142215       -1.6058863666  MEMB      78              0.0000000000
      9636        78  DOPE      C216           35.5997658941       14.5077718854       -0.4436938161  MEMB      78              0.0000000000
      9637        78  DOPE      H16R           35.9524480907       15.5426804042       -0.2117646594  MEMB      78              0.0000000000
      9638        78  DOPE      H16S           35.3500557016       13.9444207909        0.4837587641  MEMB      78              0.0000000000
      9639        78  DOPE      C217           34.2487249887       14.8204924730       -1.1435479211  MEMB      78              0.0000000000
      9640        78  DOPE      H17R           33.8250085969       15.7007907760       -0.6029687242  MEMB      78              0.0000000000
      9641        78  DOPE      H17S           33.4389022036       14.0838878658       -1.0278426661  MEMB      78              0.0000000000
      9642        78  DOPE      C218           34.2673008397       15.1618710716       -2.5953262720  MEMB      78              0.0000000000
      9643        78  DOPE      H18R           35.2580276207       14.8700772451       -3.0064901416  MEMB      78              0.0000000000
      9644        78  DOPE      H18S           34.0294734172       16.2337888823       -2.6773741234  MEMB      78              0.0000000000
      9645        78  DOPE      H18T           33.4743121587       14.6308024961       -3.1612937696  MEMB      78              0.0000000000
      9646        78  DOPE      C33            33.3125964563        9.2623943023       12.6824415391  MEMB      78              0.0000000000
      9647        78  DOPE      H3X            32.3212180675        9.6972323567       12.9450435268  MEMB      78              0.0000000000
      9648        78  DOPE      H3Y            33.0869336873        8.3144378313       12.1738983700  MEMB      78              0.0000000000
      9649        78  DOPE      C34            33.8881886889       10.1530348794       11.5819859109  MEMB      78              0.0000000000
      9650        78  DOPE      H4X            33.9120508260       11.2080608964       11.8731017006  MEMB      78              0.0000000000
      9651        78  DOPE      H4Y            34.8936422250        9.8100854056       11.2626534274  MEMB      78              0.0000000000
      9652        78  DOPE      C35            32.9559433868       10.2236790486       10.3870653686  MEMB      78              0.0000000000
      9653        78  DOPE      H5X            31.8993236205       10.2984493229       10.7361924493  MEMB      78              0.0000000000
      9654        78  DOPE      H5Y            33.0852993837        9.3010280684        9.8088274702  MEMB      78              0.0000000000
      9655        78  DOPE      C36            33.2405608548       11.3666666026        9.4274280219  MEMB      78              0.0000000000
      9656        78  DOPE      H6X            33.1966165461       12.3545787628        9.9412627395  MEMB      78              0.0000000000
      9657        78  DOPE      H6Y            32.3749658366       11.3119928692        8.7240193293  MEMB      78              0.0000000000
      9658        78  DOPE      C37            34.5702579850       11.2473753321        8.6489209789  MEMB      78              0.0000000000
      9659        78  DOPE      H7X            34.6205772508       12.0473805478        7.8966074062  MEMB      78              0.0000000000
      9660        78  DOPE      H7Y            35.4321906898       11.4459387867        9.2944396564  MEMB      78              0.0000000000
      9661        78  DOPE      C38            34.8857996577        9.8869955385        8.0197430892  MEMB      78              0.0000000000
      9662        78  DOPE      H8X            34.9277697168        9.1789478363        8.8685861936  MEMB      78              0.0000000000
      9663        78  DOPE      H8Y            35.9097963962        9.8965790231        7.5847469516  MEMB      78              0.0000000000
      9664        78  DOPE      C39            33.8811223676        9.4870336650        6.9799544627  MEMB      78              0.0000000000
      9665        78  DOPE      H9X            33.2170556782        8.6576270854        7.2588314271  MEMB      78              0.0000000000
      9666        78  DOPE      C310           33.7294255841       10.0991625069        5.7964979926  MEMB      78              0.0000000000
      9667        78  DOPE      H10X           32.9632769712        9.7437832159        5.0929533120  MEMB      78              0.0000000000
      9668        78  DOPE      C311           34.5421593038       11.2797261338        5.3273010262  MEMB      78              0.0000000000
      9669        78  DOPE      H11X           33.8891317225       12.1057141825        4.9726120342  MEMB      78              0.0000000000
      9670        78  DOPE      H11Y           35.2060220466       11.7037025521        6.1105029345  MEMB      78              0.0000000000
      9671        78  DOPE      C312           35.5273658908       10.8775318658        4.2556060940  MEMB      78              0.0000000000
      9672        78  DOPE      H12X           36.0182701337        9.9232492843        4.5528745826  MEMB      78              0.0000000000
      9673        78  DOPE      H12Y           36.3181651851       11.6646748659        4.2087270037  MEMB      78              0.0000000000
      9674        78  DOPE      C313           34.9046752118       10.7627513102        2.8775780531  MEMB      78              0.0000000000
      9675        78  DOPE      H13X           34.1314155263        9.9638573525        2.8639994496  MEMB      78              0.0000000000
      9676        78  DOPE      H13Y           34.3922659824       11.7109855957        2.6165184788  MEMB      78              0.0000000000
      9677        78  DOPE      C314           36.0029645225       10.4609378808        1.8657745865  MEMB      78              0.0000000000
      9678        78  DOPE      H14X           36.8411258895       11.1825091702        1.9615137768  MEMB      78              0.0000000000
      9679        78  DOPE      H14Y           35.5583997259       10.6041886635        0.8542065058  MEMB      78              0.0000000000
      9680        78  DOPE      C315           36.4974625499        9.0147883139        2.0117391972  MEMB      78              0.0000000000
      9681        78  DOPE      H15X           36.7135895413        8.6107992690        1.0103077647  MEMB      78              0.0000000000
      9682        78  DOPE      H15Y           35.6357488346        8.3969230582        2.3582633259  MEMB      78              0.0000000000
      9683        78  DOPE      C316           37.7016990558        8.7035231807        2.9439091349  MEMB      78              0.0000000000
      9684        78  DOPE      H16X           38.3013917819        7.8920631431        2.4761668771  MEMB      78              0.0000000000
      9685        78  DOPE      H16Y           37.2403983348        8.2724889913        3.8642316950  MEMB      78              0.0000000000
      9686        78  DOPE      C317           38.6635510722        9.8013373034        3.4671496275  MEMB      78              0.0000000000
      9687        78  DOPE      H17X           38.0920936708       10.6196687546        3.9446686528  MEMB      78              0.0000000000
      9688        78  DOPE      H17Y           39.2449421930        9.3169024455        4.2884972348  MEMB      78              0.0000000000
      9689        78  DOPE      C318           39.6910706562       10.4159554992        2.5142517828  MEMB      78              0.0000000000
      9690        78  DOPE      H18X           40.3730251677       11.0864581078        3.0816835856  MEMB      78              0.0000000000
      9691        78  DOPE      H18Y           40.3186934661        9.6369921427        2.0372758565  MEMB      78              0.0000000000
      9692        78  DOPE      H18Z           39.1896423812       11.0224230251        1.7301313398  MEMB      78              0.0000000000
      9693        79  DOPE      N               8.2965075153      -39.8620157644       21.8734711676  MEMB      79              0.0000000000
      9694        79  DOPE      HN1             8.2135457734      -40.0832294374       22.8914037667  MEMB      79              0.0000000000
      9695        79  DOPE      HN2             8.9980909885      -39.1163445519       21.7133145908  MEMB      79              0.0000000000
      9696        79  DOPE      HN3             7.4006993442      -39.5308174373       21.4533709647  MEMB      79              0.0000000000
      9697        79  DOPE      C12             8.7037624479      -41.1001018906       21.1282781121  MEMB      79              0.0000000000
      9698        79  DOPE      H12A            7.8281478309      -41.7828751441       21.1266372095  MEMB      79              0.0000000000
      9699        79  DOPE      H12B            9.5521556761      -41.5783680645       21.6535549240  MEMB      79              0.0000000000
      9700        79  DOPE      C11             9.0446816605      -40.7090163119       19.6998283505  MEMB      79              0.0000000000
      9701        79  DOPE      H11A            9.0935618972      -41.6393713857       19.0760862032  MEMB      79              0.0000000000
      9702        79  DOPE      H11B           10.0563152570      -40.2316617214       19.6718926149  MEMB      79              0.0000000000
      9703        79  DOPE      P               8.1438327368      -39.3271201281       17.7420322730  MEMB      79              0.0000000000
      9704        79  DOPE      O13             6.8352241957      -38.7875128415       17.3425696946  MEMB      79              0.0000000000
      9705        79  DOPE      O14             8.7082334222      -40.4679833572       16.9862170317  MEMB      79              0.0000000000
      9706        79  DOPE      O11             9.2052321168      -38.1501073822       17.9089602742  MEMB      79              0.0000000000
      9707        79  DOPE      O12             8.0228732461      -39.8066053629       19.2467746592  MEMB      79              0.0000000000
      9708        79  DOPE      C1              9.2356957072      -37.2861485557       19.0520747801  MEMB      79              0.0000000000
      9709        79  DOPE      HA              9.7262627789      -37.8058674995       19.8999396701  MEMB      79              0.0000000000
      9710        79  DOPE      HB              8.1983776941      -37.0102649204       19.3566325660  MEMB      79              0.0000000000
      9711        79  DOPE      C2             10.0208028078      -35.9443965361       18.8091633210  MEMB      79              0.0000000000
      9712        79  DOPE      HS              9.8501847999      -35.2757090226       19.6773737397  MEMB      79              0.0000000000
      9713        79  DOPE      O21             9.5724880767      -35.2803639156       17.6371221478  MEMB      79              0.0000000000
      9714        79  DOPE      C21             8.2935504974      -35.0143198983       17.5011711317  MEMB      79              0.0000000000
      9715        79  DOPE      O22             7.4775538691      -34.8788084506       18.4021700101  MEMB      79              0.0000000000
      9716        79  DOPE      C22             8.0863009274      -34.6589486083       16.0296114857  MEMB      79              0.0000000000
      9717        79  DOPE      H2R             9.0723003332      -34.6937165160       15.5136068066  MEMB      79              0.0000000000
      9718        79  DOPE      H2S             7.7111480787      -33.6229631980       15.9894862977  MEMB      79              0.0000000000
      9719        79  DOPE      C3             11.5779580495      -36.0951837891       18.6940046319  MEMB      79              0.0000000000
      9720        79  DOPE      HX             11.9830339395      -36.1079026751       19.7287589998  MEMB      79              0.0000000000
      9721        79  DOPE      HY             11.9929730245      -35.1727723666       18.2157354380  MEMB      79              0.0000000000
      9722        79  DOPE      O31            12.0335409470      -37.2922412763       18.0288444951  MEMB      79              0.0000000000
      9723        79  DOPE      C31            11.8008323169      -37.3353946026       16.7197750389  MEMB      79              0.0000000000
      9724        79  DOPE      O32            11.3665119573      -36.4302442383       16.0349369005  MEMB      79              0.0000000000
      9725        79  DOPE      C32            12.3647911053      -38.6440222879       16.1548911762  MEMB      79              0.0000000000
      9726        79  DOPE      H2X            13.4669356710      -38.5582348448       16.1842165929  MEMB      79              0.0000000000
      9727        79  DOPE      H2Y            12.0577169779      -39.4759729265       16.8191278448  MEMB      79              0.0000000000
      9728        79  DOPE      C23             7.1222371868      -35.5766928637       15.2619971809  MEMB      79              0.0000000000
      9729        79  DOPE      H3R             6.0683660528      -35.3295167597       15.5224184150  MEMB      79              0.0000000000
      9730        79  DOPE      H3S             7.2946824262      -36.6491354135       15.5239011791  MEMB      79              0.0000000000
      9731        79  DOPE      C24             7.3811884814      -35.3971493159       13.7633778440  MEMB      79              0.0000000000
      9732        79  DOPE      H4R             8.3848300152      -35.8203674345       13.5285361204  MEMB      79              0.0000000000
      9733        79  DOPE      H4S             7.4092200781      -34.3107767326       13.5230663403  MEMB      79              0.0000000000
      9734        79  DOPE      C25             6.3269007848      -36.0805240188       12.9000512093  MEMB      79              0.0000000000
      9735        79  DOPE      H5R             5.3924664490      -35.4741401945       12.9162667054  MEMB      79              0.0000000000
      9736        79  DOPE      H5S             6.0849603650      -37.0673643055       13.3592291946  MEMB      79              0.0000000000
      9737        79  DOPE      C26             6.7906135774      -36.3029125964       11.4579676383  MEMB      79              0.0000000000
      9738        79  DOPE      H6R             5.9779451394      -36.8700279109       10.9548611783  MEMB      79              0.0000000000
      9739        79  DOPE      H6S             7.6863062987      -36.9609152145       11.4441045889  MEMB      79              0.0000000000
      9740        79  DOPE      C27             7.1074944119      -34.9938980507       10.7074964115  MEMB      79              0.0000000000
      9741        79  DOPE      H7R             8.1800463417      -34.7459745559       10.8687633990  MEMB      79              0.0000000000
      9742        79  DOPE      H7S             6.5171011186      -34.1636727067       11.1618482275  MEMB      79              0.0000000000
      9743        79  DOPE      C28             6.8086434312      -35.0650459076        9.1963336925  MEMB      79              0.0000000000
      9744        79  DOPE      H8R             7.3794440825      -35.9046564177        8.7434263337  MEMB      79              0.0000000000
      9745        79  DOPE      H8S             7.1518342630      -34.1213166602        8.7150567679  MEMB      79              0.0000000000
      9746        79  DOPE      C29             5.3210048494      -35.2257226958        9.0333487875  MEMB      79              0.0000000000
      9747        79  DOPE      H9R             4.7431010606      -34.3396236908        9.3375013684  MEMB      79              0.0000000000
      9748        79  DOPE      C210            4.6392813427      -36.3313048889        8.6765545593  MEMB      79              0.0000000000
      9749        79  DOPE      H10R            3.5615508804      -36.2943862575        8.8691033781  MEMB      79              0.0000000000
      9750        79  DOPE      C211            5.1423709910      -37.7182393275        8.3337951163  MEMB      79              0.0000000000
      9751        79  DOPE      H11R            4.8363290544      -38.3753957571        9.1817281045  MEMB      79              0.0000000000
      9752        79  DOPE      H11S            6.2509550496      -37.7598653239        8.3228705380  MEMB      79              0.0000000000
      9753        79  DOPE      C212            4.6022835169      -38.4484464882        7.0600720151  MEMB      79              0.0000000000
      9754        79  DOPE      H12R            3.5006201059      -38.5514774972        7.1415880281  MEMB      79              0.0000000000
      9755        79  DOPE      H12S            5.0083001915      -39.4840691934        7.1084867117  MEMB      79              0.0000000000
      9756        79  DOPE      C213            4.9217572940      -37.8912887717        5.6434243250  MEMB      79              0.0000000000
      9757        79  DOPE      H13R            4.2161284957      -37.0891021613        5.3979803787  MEMB      79              0.0000000000
      9758        79  DOPE      H13S            4.7066356101      -38.6738940541        4.8865870280  MEMB      79              0.0000000000
      9759        79  DOPE      C214            6.3492330642      -37.3735007659        5.4276358008  MEMB      79              0.0000000000
      9760        79  DOPE      H14R            6.9976262769      -38.2294531190        5.1514741601  MEMB      79              0.0000000000
      9761        79  DOPE      H14S            6.6832956687      -36.9577472311        6.4036360664  MEMB      79              0.0000000000
      9762        79  DOPE      C215            6.5513012997      -36.2126340618        4.4317375752  MEMB      79              0.0000000000
      9763        79  DOPE      H15R            7.5058397125      -35.6932023220        4.6823932669  MEMB      79              0.0000000000
      9764        79  DOPE      H15S            5.7344356568      -35.4802030929        4.6026962012  MEMB      79              0.0000000000
      9765        79  DOPE      C216            6.6462282402      -36.6274525919        2.9534319647  MEMB      79              0.0000000000
      9766        79  DOPE      H16R            5.7073683055      -37.1480033502        2.6764530546  MEMB      79              0.0000000000
      9767        79  DOPE      H16S            7.4732211963      -37.3503588568        2.8092723527  MEMB      79              0.0000000000
      9768        79  DOPE      C217            6.8583944551      -35.4460633121        1.9919786796  MEMB      79              0.0000000000
      9769        79  DOPE      H17R            6.6650656562      -35.7983402835        0.9505732624  MEMB      79              0.0000000000
      9770        79  DOPE      H17S            7.9134971646      -35.1000480719        2.0352601442  MEMB      79              0.0000000000
      9771        79  DOPE      C218            5.9509597783      -34.2750997046        2.3316111726  MEMB      79              0.0000000000
      9772        79  DOPE      H18R            6.4048902381      -33.6332747635        3.1184101167  MEMB      79              0.0000000000
      9773        79  DOPE      H18S            4.9972151261      -34.6893642195        2.7131586076  MEMB      79              0.0000000000
      9774        79  DOPE      H18T            5.6999589580      -33.6525196340        1.4572770493  MEMB      79              0.0000000000
      9775        79  DOPE      C33            11.8758403968      -38.8860660018       14.7063513596  MEMB      79              0.0000000000
      9776        79  DOPE      H3X            12.5002610581      -39.6637944500       14.2156712678  MEMB      79              0.0000000000
      9777        79  DOPE      H3Y            11.9688174116      -37.9586229840       14.0974998427  MEMB      79              0.0000000000
      9778        79  DOPE      C34            10.4210547872      -39.3627972017       14.7455014570  MEMB      79              0.0000000000
      9779        79  DOPE      H4X            10.3825870652      -40.4406158992       15.0228169039  MEMB      79              0.0000000000
      9780        79  DOPE      H4Y             9.9194280093      -38.8026282715       15.5648918549  MEMB      79              0.0000000000
      9781        79  DOPE      C35             9.5489297453      -39.0895624380       13.5172334720  MEMB      79              0.0000000000
      9782        79  DOPE      H5X             9.4681831819      -37.9945378459       13.3418318930  MEMB      79              0.0000000000
      9783        79  DOPE      H5Y             8.5251438717      -39.4596255653       13.7716239878  MEMB      79              0.0000000000
      9784        79  DOPE      C36            10.0267503580      -39.7918589617       12.2558594545  MEMB      79              0.0000000000
      9785        79  DOPE      H6X            10.4197893283      -40.7997112628       12.5251809475  MEMB      79              0.0000000000
      9786        79  DOPE      H6Y            10.8623161617      -39.2091739453       11.8090167468  MEMB      79              0.0000000000
      9787        79  DOPE      C37             8.8878917674      -39.9883898752       11.2440245812  MEMB      79              0.0000000000
      9788        79  DOPE      H7X             8.0240172704      -40.4459035591       11.7800850794  MEMB      79              0.0000000000
      9789        79  DOPE      H7Y             8.5390171165      -39.0094393404       10.8510900339  MEMB      79              0.0000000000
      9790        79  DOPE      C38             9.3102908658      -40.9168975638       10.0996950024  MEMB      79              0.0000000000
      9791        79  DOPE      H8X             8.4600700875      -41.0871742527        9.4011606440  MEMB      79              0.0000000000
      9792        79  DOPE      H8Y             9.5548842358      -41.8874426125       10.5636938921  MEMB      79              0.0000000000
      9793        79  DOPE      C39            10.5286375630      -40.3875733142        9.3983188531  MEMB      79              0.0000000000
      9794        79  DOPE      H9X            11.4793430024      -40.8903276078        9.6256274336  MEMB      79              0.0000000000
      9795        79  DOPE      C310           10.5129239801      -39.3606137910        8.5466313336  MEMB      79              0.0000000000
      9796        79  DOPE      H10X           11.4534502528      -39.0171503332        8.0884651311  MEMB      79              0.0000000000
      9797        79  DOPE      C311            9.2786180935      -38.5965700188        8.1600367123  MEMB      79              0.0000000000
      9798        79  DOPE      H11X            8.3429437523      -39.1957008093        8.2679794933  MEMB      79              0.0000000000
      9799        79  DOPE      H11Y            9.1568876641      -37.6851622507        8.7872282391  MEMB      79              0.0000000000
      9800        79  DOPE      C312            9.4314038299      -38.1831176241        6.6979336569  MEMB      79              0.0000000000
      9801        79  DOPE      H12X           10.3107811852      -37.5162053160        6.5670657162  MEMB      79              0.0000000000
      9802        79  DOPE      H12Y            8.5650273020      -37.5591724140        6.4397792118  MEMB      79              0.0000000000
      9803        79  DOPE      C313            9.5143183597      -39.3646262662        5.7223750923  MEMB      79              0.0000000000
      9804        79  DOPE      H13X           10.3993694627      -39.9913594985        5.9714394941  MEMB      79              0.0000000000
      9805        79  DOPE      H13Y            8.6100322844      -40.0095719578        5.7980318120  MEMB      79              0.0000000000
      9806        79  DOPE      C314            9.6863472451      -38.8694744660        4.2907074409  MEMB      79              0.0000000000
      9807        79  DOPE      H14X           10.4754132112      -38.0814554190        4.2990971384  MEMB      79              0.0000000000
      9808        79  DOPE      H14Y            8.7554843777      -38.3945101492        3.9315588920  MEMB      79              0.0000000000
      9809        79  DOPE      C315           10.1258572581      -39.9701604892        3.3255678445  MEMB      79              0.0000000000
      9810        79  DOPE      H15X           10.9006728094      -40.5938034949        3.8209443929  MEMB      79              0.0000000000
      9811        79  DOPE      H15Y           10.6093350620      -39.4491287208        2.4724434640  MEMB      79              0.0000000000
      9812        79  DOPE      C316            8.9820652216      -40.8628713540        2.8196191910  MEMB      79              0.0000000000
      9813        79  DOPE      H16X            8.0752798938      -40.2358211457        2.6583116500  MEMB      79              0.0000000000
      9814        79  DOPE      H16Y            8.7348650643      -41.6120129160        3.6052293788  MEMB      79              0.0000000000
      9815        79  DOPE      C317            9.2920816768      -41.5833362115        1.4971016522  MEMB      79              0.0000000000
      9816        79  DOPE      H17X           10.1394751331      -42.2894676392        1.6399668988  MEMB      79              0.0000000000
      9817        79  DOPE      H17Y            8.4040228548      -42.1941787009        1.2133502889  MEMB      79              0.0000000000
      9818        79  DOPE      C318            9.6220062366      -40.6391096242        0.3392311453  MEMB      79              0.0000000000
      9819        79  DOPE      H18X           10.5607609930      -40.0752329708        0.5227851041  MEMB      79              0.0000000000
      9820        79  DOPE      H18Y            9.7665495645      -41.2143195934       -0.5931867260  MEMB      79              0.0000000000
      9821        79  DOPE      H18Z            8.7964110095      -39.9128868938        0.1837034634  MEMB      79              0.0000000000
      9822        80  23SM      N             -32.4755944854       21.2827956077       27.5928905771  MEMB      80              0.0000000000
      9823        80  23SM      C15           -33.1840589356       20.0050448421       27.9674103944  MEMB      80              0.0000000000
      9824        80  23SM      H15A          -33.9374072672       19.7810029230       27.2111026417  MEMB      80              0.0000000000
      9825        80  23SM      H15B          -33.6270749594       20.0420498199       28.9491385184  MEMB      80              0.0000000000
      9826        80  23SM      H15C          -32.4840639551       19.1797221499       27.9035719330  MEMB      80              0.0000000000
      9827        80  23SM      C14           -33.5173108073       22.3588055268       27.5137468453  MEMB      80              0.0000000000
      9828        80  23SM      H14A          -34.1836009074       22.3541414767       28.3748962788  MEMB      80              0.0000000000
      9829        80  23SM      H14B          -34.1554028476       22.1586288590       26.6548987684  MEMB      80              0.0000000000
      9830        80  23SM      H14C          -33.0983179591       23.3476295503       27.3708189493  MEMB      80              0.0000000000
      9831        80  23SM      C13           -31.4292948754       21.5577048327       28.6218074796  MEMB      80              0.0000000000
      9832        80  23SM      H13A          -30.8187832646       20.6615495770       28.7707481079  MEMB      80              0.0000000000
      9833        80  23SM      H13B          -31.9021691489       21.7954539309       29.5651698853  MEMB      80              0.0000000000
      9834        80  23SM      H13C          -30.7866943425       22.3782826636       28.3283830321  MEMB      80              0.0000000000
      9835        80  23SM      C12           -31.8093504650       21.0381903400       26.2542599051  MEMB      80              0.0000000000
      9836        80  23SM      H12A          -31.2554496386       20.0917715740       26.2852089101  MEMB      80              0.0000000000
      9837        80  23SM      H12B          -31.0821983727       21.8021681135       26.0036835894  MEMB      80              0.0000000000
      9838        80  23SM      C11           -32.7595652667       20.8848903107       25.0622141997  MEMB      80              0.0000000000
      9839        80  23SM      H11A          -32.0763978645       20.9242824107       24.1768679674  MEMB      80              0.0000000000
      9840        80  23SM      H11B          -33.4337380320       21.7557118240       24.9547846194  MEMB      80              0.0000000000
      9841        80  23SM      P             -32.7606683855       18.3399937475       24.7480304652  MEMB      80              0.0000000000
      9842        80  23SM      O13           -31.5873245521       18.1964341028       25.6258381991  MEMB      80              0.0000000000
      9843        80  23SM      O14           -33.6727735614       17.1690049723       24.7090539649  MEMB      80              0.0000000000
      9844        80  23SM      O11           -32.2665377267       18.6733902226       23.2962010454  MEMB      80              0.0000000000
      9845        80  23SM      O12           -33.5419225702       19.6751975131       25.1484356609  MEMB      80              0.0000000000
      9846        80  23SM      C1S           -33.0921511091       19.4879933885       22.4382828400  MEMB      80              0.0000000000
      9847        80  23SM      H1S           -32.6323998195       20.4894257954       22.2985138055  MEMB      80              0.0000000000
      9848        80  23SM      H1T           -34.1234748997       19.6560598746       22.8347914025  MEMB      80              0.0000000000
      9849        80  23SM      NF            -33.5592999655       17.4406080884       21.3044469452  MEMB      80              0.0000000000
      9850        80  23SM      HNF           -32.8764644069       16.7463012151       21.0777692087  MEMB      80              0.0000000000
      9851        80  23SM      C2S           -33.2252197049       18.8214837349       21.0750668162  MEMB      80              0.0000000000
      9852        80  23SM      H2S           -34.0572101271       19.2984885749       20.5102884144  MEMB      80              0.0000000000
      9853        80  23SM      C3S           -31.8927844737       19.0324190800       20.3105972177  MEMB      80              0.0000000000
      9854        80  23SM      H3S           -31.0310787829       18.7854406636       20.9640633842  MEMB      80              0.0000000000
      9855        80  23SM      O3            -31.6730069779       20.3803121095       19.9242426464  MEMB      80              0.0000000000
      9856        80  23SM      HO3           -32.0472910472       20.9015809183       20.6356953651  MEMB      80              0.0000000000
      9857        80  23SM      C4S           -31.8451616727       18.1940435362       19.0651520089  MEMB      80              0.0000000000
      9858        80  23SM      H4S           -32.6389698102       18.3602463927       18.3271723359  MEMB      80              0.0000000000
      9859        80  23SM      C5S           -30.8681957852       17.3050233927       18.8302637920  MEMB      80              0.0000000000
      9860        80  23SM      H5S           -30.0555180223       17.2177677363       19.5707394521  MEMB      80              0.0000000000
      9861        80  23SM      C6S           -30.6902922778       16.4147486198       17.6410680095  MEMB      80              0.0000000000
      9862        80  23SM      H6S           -31.0277904670       15.3802352385       17.8580126955  MEMB      80              0.0000000000
      9863        80  23SM      H6T           -29.5960524124       16.3346688316       17.4938432817  MEMB      80              0.0000000000
      9864        80  23SM      C7S           -31.2936812146       16.8888877640       16.3086471972  MEMB      80              0.0000000000
      9865        80  23SM      H7S           -31.3983248188       17.9983114146       16.2907202563  MEMB      80              0.0000000000
      9866        80  23SM      H7T           -32.2990745402       16.4518813555       16.1797883236  MEMB      80              0.0000000000
      9867        80  23SM      C8S           -30.3572204334       16.5223455146       15.1493781855  MEMB      80              0.0000000000
      9868        80  23SM      H8S           -30.0410026971       15.4664922786       15.1892438374  MEMB      80              0.0000000000
      9869        80  23SM      H8T           -29.4668080040       17.0892191196       15.4462199045  MEMB      80              0.0000000000
      9870        80  23SM      C9S           -30.8339872271       17.0179901509       13.7696345563  MEMB      80              0.0000000000
      9871        80  23SM      H9S           -30.3377833364       17.9993242077       13.6128012746  MEMB      80              0.0000000000
      9872        80  23SM      H9T           -31.9025212846       17.2632250282       13.8939801863  MEMB      80              0.0000000000
      9873        80  23SM      C10S          -30.6292747361       16.1522246431       12.4749771269  MEMB      80              0.0000000000
      9874        80  23SM      H10S          -31.3012814488       15.3027249542       12.5132770354  MEMB      80              0.0000000000
      9875        80  23SM      H10T          -29.6412863159       15.6740850032       12.4715705593  MEMB      80              0.0000000000
      9876        80  23SM      C11S          -30.9809639708       16.9637502964       11.1863024004  MEMB      80              0.0000000000
      9877        80  23SM      H11S          -30.6667408891       17.9940432314       11.4726532649  MEMB      80              0.0000000000
      9878        80  23SM      H11T          -32.0716185954       16.8853647528       11.0267511694  MEMB      80              0.0000000000
      9879        80  23SM      C12S          -30.3954635507       16.8229866426        9.7608112453  MEMB      80              0.0000000000
      9880        80  23SM      H12S          -29.4843144084       16.2072263096        9.7567102761  MEMB      80              0.0000000000
      9881        80  23SM      H12T          -30.1268767869       17.8713899697        9.4614318055  MEMB      80              0.0000000000
      9882        80  23SM      C13S          -31.2927037051       16.3849350823        8.5859468835  MEMB      80              0.0000000000
      9883        80  23SM      H13S          -32.1675514906       17.0543182592        8.4732801533  MEMB      80              0.0000000000
      9884        80  23SM      H13T          -31.7053993891       15.3744736564        8.7441386514  MEMB      80              0.0000000000
      9885        80  23SM      C14S          -30.4854645528       16.4024738619        7.2735294618  MEMB      80              0.0000000000
      9886        80  23SM      H14S          -29.7284323116       15.5877546990        7.2827876844  MEMB      80              0.0000000000
      9887        80  23SM      H14T          -29.9253827273       17.3639198011        7.1961437766  MEMB      80              0.0000000000
      9888        80  23SM      C15S          -31.3736374133       16.2740493640        6.0344594542  MEMB      80              0.0000000000
      9889        80  23SM      H15S          -31.9828188633       17.1987390608        5.9884273929  MEMB      80              0.0000000000
      9890        80  23SM      H15T          -32.0725535601       15.4182441975        6.1455821315  MEMB      80              0.0000000000
      9891        80  23SM      C16S          -30.5683236925       16.1369335064        4.7340168092  MEMB      80              0.0000000000
      9892        80  23SM      H16S          -30.0800974793       15.1377827006        4.7040995072  MEMB      80              0.0000000000
      9893        80  23SM      H16T          -29.7627233867       16.9069649686        4.7426545592  MEMB      80              0.0000000000
      9894        80  23SM      C17S          -31.4137222225       16.3542624310        3.4701518866  MEMB      80              0.0000000000
      9895        80  23SM      H17S          -31.0682783916       17.2855990922        2.9667012060  MEMB      80              0.0000000000
      9896        80  23SM      H17T          -32.4671053730       16.5222510356        3.7787936294  MEMB      80              0.0000000000
      9897        80  23SM      C18S          -31.4142513801       15.1992297028        2.4702906431  MEMB      80              0.0000000000
      9898        80  23SM      H18S          -31.8201124936       15.5290439540        1.4888761818  MEMB      80              0.0000000000
      9899        80  23SM      H18T          -32.0678406157       14.3841932323        2.8503925316  MEMB      80              0.0000000000
      9900        80  23SM      H18U          -30.3888287869       14.7972649153        2.3202312281  MEMB      80              0.0000000000
      9901        80  23SM      C1F           -34.7355152882       17.0556315704       21.7823931565  MEMB      80              0.0000000000
      9902        80  23SM      OF            -35.5628515139       17.8361368216       22.2408374701  MEMB      80              0.0000000000
      9903        80  23SM      C2F           -35.0370017889       15.6161123996       21.5741193410  MEMB      80              0.0000000000
      9904        80  23SM      H2F           -35.3461723407       15.0997607246       22.4953670407  MEMB      80              0.0000000000
      9905        80  23SM      H2G           -34.1582183331       15.0706471094       21.2266586925  MEMB      80              0.0000000000
      9906        80  23SM      C3F           -36.0983194760       15.5898308273       20.4790476604  MEMB      80              0.0000000000
      9907        80  23SM      H3F           -36.9791971279       16.1466951783       20.8824359165  MEMB      80              0.0000000000
      9908        80  23SM      H3G           -36.4418038161       14.5528174963       20.2951006058  MEMB      80              0.0000000000
      9909        80  23SM      C4F           -35.6273590082       16.2470576943       19.1628371059  MEMB      80              0.0000000000
      9910        80  23SM      H4F           -34.7194576039       16.8677299989       19.2659206716  MEMB      80              0.0000000000
      9911        80  23SM      H4G           -36.3815024995       16.9842072317       18.8283242405  MEMB      80              0.0000000000
      9912        80  23SM      C5F           -35.3749836704       15.2738589772       18.0289861411  MEMB      80              0.0000000000
      9913        80  23SM      H5F           -35.6586414352       14.2343816232       18.3007398140  MEMB      80              0.0000000000
      9914        80  23SM      H5G           -34.2804795418       15.2850661511       17.8205354705  MEMB      80              0.0000000000
      9915        80  23SM      C6F           -36.1546398806       15.7005126233       16.7851682367  MEMB      80              0.0000000000
      9916        80  23SM      H6F           -36.0356876359       16.7982047745       16.6638868567  MEMB      80              0.0000000000
      9917        80  23SM      H6G           -37.2363938606       15.4819078207       16.9333264369  MEMB      80              0.0000000000
      9918        80  23SM      C7F           -35.6672491611       14.9561252412       15.5533899577  MEMB      80              0.0000000000
      9919        80  23SM      H7F           -36.1781503919       13.9737523125       15.5338027581  MEMB      80              0.0000000000
      9920        80  23SM      H7G           -34.5844888929       14.7913148433       15.6824507555  MEMB      80              0.0000000000
      9921        80  23SM      C8F           -35.7570369213       15.6992335736       14.2249896696  MEMB      80              0.0000000000
      9922        80  23SM      H8F           -36.7838455158       16.1044106155       14.1035318274  MEMB      80              0.0000000000
      9923        80  23SM      H8G           -35.5755441075       14.9950134486       13.3869918543  MEMB      80              0.0000000000
      9924        80  23SM      C9F           -34.6604125056       16.7739307145       14.1777678745  MEMB      80              0.0000000000
      9925        80  23SM      H9F           -33.7561337598       16.4496772517       14.7203562992  MEMB      80              0.0000000000
      9926        80  23SM      H9G           -35.0472239714       17.6366443690       14.7503575929  MEMB      80              0.0000000000
      9927        80  23SM      C10F          -34.2051687819       17.2337917606       12.7850757583  MEMB      80              0.0000000000
      9928        80  23SM      H10F          -34.9090130583       16.8924858935       12.0072339733  MEMB      80              0.0000000000
      9929        80  23SM      H10G          -33.2882829950       16.6697207446       12.5512117260  MEMB      80              0.0000000000
      9930        80  23SM      C11F          -34.0068956644       18.7752016380       12.7449722851  MEMB      80              0.0000000000
      9931        80  23SM      H11F          -34.0146956006       19.1835989746       13.7762807563  MEMB      80              0.0000000000
      9932        80  23SM      H11G          -34.8470059037       19.2269811705       12.2026745940  MEMB      80              0.0000000000
      9933        80  23SM      C12F          -32.7740692976       19.2722596253       12.0016591754  MEMB      80              0.0000000000
      9934        80  23SM      H12F          -32.7691300129       18.6536405671       11.0952371521  MEMB      80              0.0000000000
      9935        80  23SM      H12G          -31.8879127391       19.0846089541       12.6397163844  MEMB      80              0.0000000000
      9936        80  23SM      C13F          -32.7154532305       20.7223909617       11.4980028465  MEMB      80              0.0000000000
      9937        80  23SM      H13F          -31.7098830086       21.1169111385       11.7796440992  MEMB      80              0.0000000000
      9938        80  23SM      H13G          -33.4747965707       21.3314811877       12.0299128528  MEMB      80              0.0000000000
      9939        80  23SM      C14F          -32.8569739846       20.8846899097        9.9582908674  MEMB      80              0.0000000000
      9940        80  23SM      H14F          -32.6181794700       21.9425100287        9.7109069977  MEMB      80              0.0000000000
      9941        80  23SM      H14G          -33.9126187145       20.6864240666        9.6753071573  MEMB      80              0.0000000000
      9942        80  23SM      C15F          -31.9366077799       19.9843674168        9.1014069829  MEMB      80              0.0000000000
      9943        80  23SM      H15F          -32.1938569955       18.9241613578        9.2751331468  MEMB      80              0.0000000000
      9944        80  23SM      H15G          -30.8936816286       20.1131969839        9.4479622303  MEMB      80              0.0000000000
      9945        80  23SM      C16F          -32.0132405429       20.1648426466        7.5700753060  MEMB      80              0.0000000000
      9946        80  23SM      H16F          -31.1240274695       19.6547435405        7.1274181032  MEMB      80              0.0000000000
      9947        80  23SM      H16G          -31.9576063724       21.2354152012        7.2877776745  MEMB      80              0.0000000000
      9948        80  23SM      C17F          -33.2638470631       19.4873596965        6.9866798638  MEMB      80              0.0000000000
      9949        80  23SM      H17F          -34.1724572036       19.9829467379        7.3880128185  MEMB      80              0.0000000000
      9950        80  23SM      H17G          -33.2831433034       18.4355462683        7.3495529912  MEMB      80              0.0000000000
      9951        80  23SM      C18F          -33.3552940254       19.4425058996        5.4532089317  MEMB      80              0.0000000000
      9952        80  23SM      H18F          -32.3620517689       19.2354140643        4.9964290677  MEMB      80              0.0000000000
      9953        80  23SM      H18G          -33.7036617842       20.4321485779        5.0828938496  MEMB      80              0.0000000000
      9954        80  23SM      C19F          -34.3336455596       18.3495748898        4.9944274428  MEMB      80              0.0000000000
      9955        80  23SM      H19F          -35.1877249762       18.3094976784        5.7097863309  MEMB      80              0.0000000000
      9956        80  23SM      H19G          -33.8619523508       17.3492122590        5.0273526160  MEMB      80              0.0000000000
      9957        80  23SM      C20F          -34.9231505361       18.5889776644        3.6097753147  MEMB      80              0.0000000000
      9958        80  23SM      H20F          -35.4569260096       19.5661296388        3.6295281273  MEMB      80              0.0000000000
      9959        80  23SM      H20G          -35.6668013715       17.7809882261        3.4061691769  MEMB      80              0.0000000000
      9960        80  23SM      C21F          -33.9842840068       18.6282209521        2.4195189378  MEMB      80              0.0000000000
      9961        80  23SM      H21F          -33.4530566716       17.6610017905        2.3210072803  MEMB      80              0.0000000000
      9962        80  23SM      H21G          -33.2327617044       19.4395567966        2.5423727291  MEMB      80              0.0000000000
      9963        80  23SM      C22F          -34.8418609666       18.8595258083        1.1738550700  MEMB      80              0.0000000000
      9964        80  23SM      H22F          -35.7737477872       18.2636270905        1.2581461955  MEMB      80              0.0000000000
      9965        80  23SM      H22G          -34.3307826110       18.4517984298        0.2797516341  MEMB      80              0.0000000000
      9966        80  23SM      C23F          -35.1897966076       20.3388414504        0.9791461072  MEMB      80              0.0000000000
      9967        80  23SM      H23F          -35.8115934280       20.4602385674        0.0684072436  MEMB      80              0.0000000000
      9968        80  23SM      H23G          -34.2910471407       20.9745773146        0.8694328505  MEMB      80              0.0000000000
      9969        80  23SM      H23H          -35.7266690061       20.7513149260        1.8542322702  MEMB      80              0.0000000000
      9970        81  CHL1      C3             15.8742815122      -35.1405858637       17.2785922634  MEMB      81              0.0000000000
      9971        81  CHL1      H3             16.9651944951      -35.3413398336       17.1578762633  MEMB      81              0.0000000000
      9972        81  CHL1      O3             15.5193408763      -35.0891192092       18.6564749241  MEMB      81              0.0000000000
      9973        81  CHL1      H3'            15.8807455941      -34.2644561043       19.0300111707  MEMB      81              0.0000000000
      9974        81  CHL1      C4             15.5195895099      -33.8212575362       16.5540441483  MEMB      81              0.0000000000
      9975        81  CHL1      H4A            14.4771292352      -33.5471309002       16.8254929088  MEMB      81              0.0000000000
      9976        81  CHL1      H4B            16.1767022450      -33.0186824226       16.9471203064  MEMB      81              0.0000000000
      9977        81  CHL1      C5             15.6400913627      -33.9302276082       15.0462583233  MEMB      81              0.0000000000
      9978        81  CHL1      C6             16.3896747096      -33.0928389881       14.3054746374  MEMB      81              0.0000000000
      9979        81  CHL1      H6             16.9428963200      -32.2733461938       14.7912484140  MEMB      81              0.0000000000
      9980        81  CHL1      C7             16.4439759164      -33.1478488916       12.8016921138  MEMB      81              0.0000000000
      9981        81  CHL1      H7A            16.3984195578      -32.1285892232       12.3629239671  MEMB      81              0.0000000000
      9982        81  CHL1      H7B            17.4104723437      -33.6013167821       12.4847446648  MEMB      81              0.0000000000
      9983        81  CHL1      C8             15.2942239922      -34.0068610559       12.2010541831  MEMB      81              0.0000000000
      9984        81  CHL1      H8             14.3383061476      -33.4498782851       12.3155539243  MEMB      81              0.0000000000
      9985        81  CHL1      C14            15.5416266202      -34.2558874308       10.7291745233  MEMB      81              0.0000000000
      9986        81  CHL1      H14            16.5253598738      -34.7900988839       10.6705531223  MEMB      81              0.0000000000
      9987        81  CHL1      C15            15.6935229191      -33.0146571168        9.8270577041  MEMB      81              0.0000000000
      9988        81  CHL1      H15A           14.9484760657      -32.2412578227       10.1123088079  MEMB      81              0.0000000000
      9989        81  CHL1      H15B           16.7138047376      -32.5867426526        9.8952690779  MEMB      81              0.0000000000
      9990        81  CHL1      C16            15.3936865928      -33.5547724012        8.4241606030  MEMB      81              0.0000000000
      9991        81  CHL1      H16A           14.5023054223      -33.0297296991        8.0139935973  MEMB      81              0.0000000000
      9992        81  CHL1      H16B           16.2456533849      -33.4064242979        7.7326998589  MEMB      81              0.0000000000
      9993        81  CHL1      C17            15.0658284595      -35.0729094018        8.5994898792  MEMB      81              0.0000000000
      9994        81  CHL1      H17            16.0466039592      -35.6060997548        8.5860076363  MEMB      81              0.0000000000
      9995        81  CHL1      C13            14.5362047415      -35.1805033426       10.0430182168  MEMB      81              0.0000000000
      9996        81  CHL1      C18            13.0999265697      -34.5921923958       10.1162633301  MEMB      81              0.0000000000
      9997        81  CHL1      H18A           13.0449030217      -33.5768166370        9.6799483926  MEMB      81              0.0000000000
      9998        81  CHL1      H18B           12.3922271629      -35.2487726575        9.5705300182  MEMB      81              0.0000000000
      9999        81  CHL1      H18C           12.7530725122      -34.5222110904       11.1662341990  MEMB      81              0.0000000000
     10000        81  CHL1      C12            14.6113936168      -36.5542683218       10.7335690812  MEMB      81              0.0000000000
     10001        81  CHL1      H12A           13.8566069706      -37.2496735598       10.3168005594  MEMB      81              0.0000000000
     10002        81  CHL1      H12B           15.6208784637      -36.9867010221       10.5689196199  MEMB      81              0.0000000000
     10003        81  CHL1      C11            14.3450942936      -36.4287177822       12.2436086801  MEMB      81              0.0000000000
     10004        81  CHL1      H11A           13.2669196654      -36.2113255184       12.3678482690  MEMB      81              0.0000000000
     10005        81  CHL1      H11B           14.5332828477      -37.4181507058       12.7111908078  MEMB      81              0.0000000000
     10006        81  CHL1      C9             15.2063465431      -35.3364563913       12.9488639731  MEMB      81              0.0000000000
     10007        81  CHL1      H9             16.2484762404      -35.7460050788       12.9229906612  MEMB      81              0.0000000000
     10008        81  CHL1      C10            14.8639157860      -35.1123750674       14.4392210656  MEMB      81              0.0000000000
     10009        81  CHL1      C19            13.3645705543      -34.7464252432       14.5859207166  MEMB      81              0.0000000000
     10010        81  CHL1      H19A           13.1065089716      -33.8138542628       14.0487298652  MEMB      81              0.0000000000
     10011        81  CHL1      H19B           12.7216377443      -35.5614508371       14.2046163237  MEMB      81              0.0000000000
     10012        81  CHL1      H19C           13.0764097375      -34.6143814912       15.6478714212  MEMB      81              0.0000000000
     10013        81  CHL1      C1             15.1766503705      -36.4280352379       15.2013728516  MEMB      81              0.0000000000
     10014        81  CHL1      H1A            14.4583657019      -37.2022047871       14.8568661526  MEMB      81              0.0000000000
     10015        81  CHL1      H1B            16.1985885420      -36.7769490436       14.9403486372  MEMB      81              0.0000000000
     10016        81  CHL1      C2             15.0657234979      -36.3034206879       16.7189305763  MEMB      81              0.0000000000
     10017        81  CHL1      H2A            15.3546443032      -37.2517488582       17.2173163177  MEMB      81              0.0000000000
     10018        81  CHL1      H2B            14.0078569463      -36.0937147026       16.9808947121  MEMB      81              0.0000000000
     10019        81  CHL1      C20            14.2471898171      -35.6326333836        7.4337600125  MEMB      81              0.0000000000
     10020        81  CHL1      H20            13.2381708119      -35.1623936564        7.4621906703  MEMB      81              0.0000000000
     10021        81  CHL1      C21            14.0732245769      -37.1636862684        7.5497409552  MEMB      81              0.0000000000
     10022        81  CHL1      H21A           15.0503969989      -37.6572456921        7.7260002550  MEMB      81              0.0000000000
     10023        81  CHL1      H21B           13.6329799375      -37.5778992798        6.6202975693  MEMB      81              0.0000000000
     10024        81  CHL1      H21C           13.3723979161      -37.4184586000        8.3665646253  MEMB      81              0.0000000000
     10025        81  CHL1      C22            14.9063969393      -35.2648824349        6.0748529190  MEMB      81              0.0000000000
     10026        81  CHL1      H22A           15.0047696660      -34.1579398358        6.0023037664  MEMB      81              0.0000000000
     10027        81  CHL1      H22B           15.9289878975      -35.6963871131        6.0306443783  MEMB      81              0.0000000000
     10028        81  CHL1      C23            14.1103189136      -35.6752902352        4.8262886129  MEMB      81              0.0000000000
     10029        81  CHL1      H23A           14.6138453388      -35.1955643253        3.9571543230  MEMB      81              0.0000000000
     10030        81  CHL1      H23B           14.1491156289      -36.7731306422        4.6657438980  MEMB      81              0.0000000000
     10031        81  CHL1      C24            12.6556984219      -35.2011245042        4.9376728981  MEMB      81              0.0000000000
     10032        81  CHL1      H24A           12.1178085834      -35.8339216817        5.6788154936  MEMB      81              0.0000000000
     10033        81  CHL1      H24B           12.6632059917      -34.1576653559        5.3289572712  MEMB      81              0.0000000000
     10034        81  CHL1      C25            11.8427576541      -35.1997350512        3.6374382053  MEMB      81              0.0000000000
     10035        81  CHL1      H25            11.7483715664      -36.2479989887        3.2674798452  MEMB      81              0.0000000000
     10036        81  CHL1      C26            10.4325504815      -34.6651524202        3.9401452646  MEMB      81              0.0000000000
     10037        81  CHL1      H26A           10.4924416056      -33.7142085644        4.5088116548  MEMB      81              0.0000000000
     10038        81  CHL1      H26B            9.8719272546      -34.4723169198        3.0051191954  MEMB      81              0.0000000000
     10039        81  CHL1      H26C            9.8680655577      -35.4066345617        4.5457949049  MEMB      81              0.0000000000
     10040        81  CHL1      C27            12.5368042660      -34.3756273724        2.5437211938  MEMB      81              0.0000000000
     10041        81  CHL1      H27A           13.3578436953      -34.9677715988        2.0854565673  MEMB      81              0.0000000000
     10042        81  CHL1      H27B           11.8207380604      -34.0931476515        1.7449510591  MEMB      81              0.0000000000
     10043        81  CHL1      H27C           12.9820920645      -33.4564193802        2.9790991848  MEMB      81              0.0000000000
     10044        82  DOPE      N              30.2066089367       23.7835374094       21.9293732026  MEMB      82              0.0000000000
     10045        82  DOPE      HN1            29.6862245100       22.8894894045       21.9533639160  MEMB      82              0.0000000000
     10046        82  DOPE      HN2            31.0510952517       23.6260459055       21.3410069552  MEMB      82              0.0000000000
     10047        82  DOPE      HN3            30.4731158976       24.0400384871       22.9050761272  MEMB      82              0.0000000000
     10048        82  DOPE      C12            29.3901908666       24.8851163450       21.2899316589  MEMB      82              0.0000000000
     10049        82  DOPE      H12A           30.0997259292       25.6838811568       20.9869027247  MEMB      82              0.0000000000
     10050        82  DOPE      H12B           28.6974574276       25.2850321529       22.0552045997  MEMB      82              0.0000000000
     10051        82  DOPE      C11            28.6022242096       24.4106902852       20.0572815124  MEMB      82              0.0000000000
     10052        82  DOPE      H11A           28.1572737961       25.3013262363       19.5587140762  MEMB      82              0.0000000000
     10053        82  DOPE      H11B           27.7681956217       23.7408003497       20.3684556124  MEMB      82              0.0000000000
     10054        82  DOPE      P              29.6226676174       24.1016824480       17.6460638589  MEMB      82              0.0000000000
     10055        82  DOPE      O13            30.3426666708       25.3894761732       17.5679516683  MEMB      82              0.0000000000
     10056        82  DOPE      O14            28.3524085703       23.9535164364       16.9215305378  MEMB      82              0.0000000000
     10057        82  DOPE      O11            30.5773322795       22.9125008177       17.2926200304  MEMB      82              0.0000000000
     10058        82  DOPE      O12            29.4444502220       23.7104114317       19.1745779647  MEMB      82              0.0000000000
     10059        82  DOPE      C1             30.0331425847       21.5991115282       17.5379145526  MEMB      82              0.0000000000
     10060        82  DOPE      HA             28.9683518630       21.4940592431       17.2211516900  MEMB      82              0.0000000000
     10061        82  DOPE      HB             30.1056475444       21.3454053876       18.6203057464  MEMB      82              0.0000000000
     10062        82  DOPE      C2             30.8386539463       20.5398646505       16.7725768306  MEMB      82              0.0000000000
     10063        82  DOPE      HS             31.7645187310       20.4819011788       17.3817670783  MEMB      82              0.0000000000
     10064        82  DOPE      O21            31.1073106100       20.9733663025       15.4327275621  MEMB      82              0.0000000000
     10065        82  DOPE      C21            32.1716484961       21.7503459648       15.3447357283  MEMB      82              0.0000000000
     10066        82  DOPE      O22            33.0919670070       21.8359190040       16.1422948649  MEMB      82              0.0000000000
     10067        82  DOPE      C22            32.0872827682       22.4772443568       14.0192912409  MEMB      82              0.0000000000
     10068        82  DOPE      H2R            32.8238858144       23.2712071531       14.0445325819  MEMB      82              0.0000000000
     10069        82  DOPE      H2S            31.0923358295       22.9672063387       13.9466231889  MEMB      82              0.0000000000
     10070        82  DOPE      C3             30.1626452614       19.1403389511       16.7008216924  MEMB      82              0.0000000000
     10071        82  DOPE      HX             30.0697249802       18.7095868471       17.7166561329  MEMB      82              0.0000000000
     10072        82  DOPE      HY             30.8275199916       18.4541958332       16.1301225261  MEMB      82              0.0000000000
     10073        82  DOPE      O31            28.8648384911       19.2705765085       16.1037017102  MEMB      82              0.0000000000
     10074        82  DOPE      C31            28.7370110398       18.7855574581       14.8861969233  MEMB      82              0.0000000000
     10075        82  DOPE      O32            29.3826712361       17.8906304247       14.3734689309  MEMB      82              0.0000000000
     10076        82  DOPE      C32            27.6663610619       19.5843871657       14.1857066127  MEMB      82              0.0000000000
     10077        82  DOPE      H2X            27.6113629597       19.2040018727       13.1469799441  MEMB      82              0.0000000000
     10078        82  DOPE      H2Y            26.7100232149       19.3800349197       14.7059287932  MEMB      82              0.0000000000
     10079        82  DOPE      C23            32.4275932726       21.5988641055       12.7985025291  MEMB      82              0.0000000000
     10080        82  DOPE      H3R            33.3405390838       20.9934709469       12.9365401782  MEMB      82              0.0000000000
     10081        82  DOPE      H3S            32.6215281704       22.3116963160       11.9655947785  MEMB      82              0.0000000000
     10082        82  DOPE      C24            31.2035394702       20.8237278365       12.3506048586  MEMB      82              0.0000000000
     10083        82  DOPE      H4R            30.4531451666       21.5822940282       12.6313887159  MEMB      82              0.0000000000
     10084        82  DOPE      H4S            30.9117834658       19.9334858524       12.9324256156  MEMB      82              0.0000000000
     10085        82  DOPE      C25            31.0328555348       20.7061143413       10.8407785694  MEMB      82              0.0000000000
     10086        82  DOPE      H5R            31.1601639322       19.7053631551       10.4072787417  MEMB      82              0.0000000000
     10087        82  DOPE      H5S            31.8122966837       21.3236493323       10.3655742433  MEMB      82              0.0000000000
     10088        82  DOPE      C26            29.6130908663       21.1030701529       10.4873706875  MEMB      82              0.0000000000
     10089        82  DOPE      H6R            29.5735936400       21.5539252882        9.4799854422  MEMB      82              0.0000000000
     10090        82  DOPE      H6S            29.2946306247       21.9168602667       11.1553598723  MEMB      82              0.0000000000
     10091        82  DOPE      C27            28.6861932578       19.8926240854       10.6877692780  MEMB      82              0.0000000000
     10092        82  DOPE      H7R            27.6979900792       20.2410996983       11.0532930266  MEMB      82              0.0000000000
     10093        82  DOPE      H7S            29.1201760897       19.2460931306       11.4896054500  MEMB      82              0.0000000000
     10094        82  DOPE      C28            28.5200463951       19.0462572342        9.4194898406  MEMB      82              0.0000000000
     10095        82  DOPE      H8R            27.7629728248       18.2531917876        9.5952045568  MEMB      82              0.0000000000
     10096        82  DOPE      H8S            29.4928692537       18.5364868870        9.2313806682  MEMB      82              0.0000000000
     10097        82  DOPE      C29            28.1132997090       19.9740297471        8.3013996950  MEMB      82              0.0000000000
     10098        82  DOPE      H9R            27.3535158336       20.7211038444        8.5786979485  MEMB      82              0.0000000000
     10099        82  DOPE      C210           28.6505719589       20.0196266054        7.0735721044  MEMB      82              0.0000000000
     10100        82  DOPE      H10R           28.3289327963       20.8045725720        6.3739629829  MEMB      82              0.0000000000
     10101        82  DOPE      C211           29.7587760051       19.1340132734        6.5801251959  MEMB      82              0.0000000000
     10102        82  DOPE      H11R           30.4038219936       18.7841827688        7.4165590917  MEMB      82              0.0000000000
     10103        82  DOPE      H11S           30.4288785908       19.6846776305        5.8855466359  MEMB      82              0.0000000000
     10104        82  DOPE      C212           29.1553935173       17.8893728577        5.9057706083  MEMB      82              0.0000000000
     10105        82  DOPE      H12R           28.4174093366       17.4329823468        6.6058215730  MEMB      82              0.0000000000
     10106        82  DOPE      H12S           29.9573480155       17.1380862474        5.7499337979  MEMB      82              0.0000000000
     10107        82  DOPE      C213           28.4732595204       18.1692130553        4.5560578222  MEMB      82              0.0000000000
     10108        82  DOPE      H13R           27.7657606789       19.0206671006        4.6825326405  MEMB      82              0.0000000000
     10109        82  DOPE      H13S           27.8756672267       17.2801024966        4.2583381433  MEMB      82              0.0000000000
     10110        82  DOPE      C214           29.4594466284       18.5213036937        3.4342624039  MEMB      82              0.0000000000
     10111        82  DOPE      H14R           30.1918759721       19.2664850482        3.8188018589  MEMB      82              0.0000000000
     10112        82  DOPE      H14S           28.9090462795       19.0037202469        2.5953592610  MEMB      82              0.0000000000
     10113        82  DOPE      C215           30.2683164247       17.3479080497        2.8541911203  MEMB      82              0.0000000000
     10114        82  DOPE      H15R           29.6094252799       16.7030949472        2.2327382998  MEMB      82              0.0000000000
     10115        82  DOPE      H15S           30.6981456401       16.7492723583        3.6818827128  MEMB      82              0.0000000000
     10116        82  DOPE      C216           31.4475713705       17.9199572671        2.0703022106  MEMB      82              0.0000000000
     10117        82  DOPE      H16R           32.2692349496       18.1663281276        2.7760750385  MEMB      82              0.0000000000
     10118        82  DOPE      H16S           31.0528844213       18.8771696433        1.6867724992  MEMB      82              0.0000000000
     10119        82  DOPE      C217           31.9983478935       17.1912772031        0.8447690895  MEMB      82              0.0000000000
     10120        82  DOPE      H17R           31.5645697081       16.1963927324        0.6811185790  MEMB      82              0.0000000000
     10121        82  DOPE      H17S           33.0974583143       17.0600674465        0.9360646954  MEMB      82              0.0000000000
     10122        82  DOPE      C218           31.7488803618       17.9643511736       -0.4342885418  MEMB      82              0.0000000000
     10123        82  DOPE      H18R           31.9453216445       17.2757374511       -1.2760758431  MEMB      82              0.0000000000
     10124        82  DOPE      H18S           32.4523915760       18.8074846009       -0.5433662415  MEMB      82              0.0000000000
     10125        82  DOPE      H18T           30.7144760692       18.3625143604       -0.4578406132  MEMB      82              0.0000000000
     10126        82  DOPE      C33            27.9990264958       21.0966099987       14.2183086659  MEMB      82              0.0000000000
     10127        82  DOPE      H3X            28.8343105305       21.2973346195       13.5337362947  MEMB      82              0.0000000000
     10128        82  DOPE      H3Y            28.3017195312       21.4373009846       15.2329808543  MEMB      82              0.0000000000
     10129        82  DOPE      C34            26.8633053362       21.9908418795       13.7485934664  MEMB      82              0.0000000000
     10130        82  DOPE      H4X            26.5619566736       21.6024645079       12.7652093557  MEMB      82              0.0000000000
     10131        82  DOPE      H4Y            26.0142238571       21.9179578162       14.4674906383  MEMB      82              0.0000000000
     10132        82  DOPE      C35            27.2709589681       23.4427514362       13.4694572240  MEMB      82              0.0000000000
     10133        82  DOPE      H5X            28.1485534153       23.6997795437       14.1027351774  MEMB      82              0.0000000000
     10134        82  DOPE      H5Y            26.4233271134       24.0866581577       13.7988943683  MEMB      82              0.0000000000
     10135        82  DOPE      C36            27.5437935153       23.7124028246       11.9694350785  MEMB      82              0.0000000000
     10136        82  DOPE      H6X            26.6772282226       24.2520473770       11.5337846032  MEMB      82              0.0000000000
     10137        82  DOPE      H6Y            27.5693578348       22.7475194042       11.4247233971  MEMB      82              0.0000000000
     10138        82  DOPE      C37            28.8481892427       24.4934412693       11.6756735137  MEMB      82              0.0000000000
     10139        82  DOPE      H7X            28.7570226080       25.4958632729       12.1449918328  MEMB      82              0.0000000000
     10140        82  DOPE      H7Y            29.7062406142       23.9655687879       12.1494557885  MEMB      82              0.0000000000
     10141        82  DOPE      C38            29.1191566474       24.6552621935       10.1587106326  MEMB      82              0.0000000000
     10142        82  DOPE      H8X            28.1852097355       25.0498141289        9.7066628616  MEMB      82              0.0000000000
     10143        82  DOPE      H8Y            29.2324099595       23.6401346098        9.7266915868  MEMB      82              0.0000000000
     10144        82  DOPE      C39            30.2666469967       25.5350081709        9.7067894087  MEMB      82              0.0000000000
     10145        82  DOPE      H9X            30.1130031136       26.6187249199        9.8245395818  MEMB      82              0.0000000000
     10146        82  DOPE      C310           31.4349218697       25.1068768064        9.1889150756  MEMB      82              0.0000000000
     10147        82  DOPE      H10X           32.0912476530       25.8316407151        8.6809022413  MEMB      82              0.0000000000
     10148        82  DOPE      C311           31.8228699684       23.6695955386        8.9678731022  MEMB      82              0.0000000000
     10149        82  DOPE      H11X           32.9242606856       23.5192877567        9.0362418384  MEMB      82              0.0000000000
     10150        82  DOPE      H11Y           31.3801051896       23.0918591795        9.7903080592  MEMB      82              0.0000000000
     10151        82  DOPE      C312           31.3318724374       23.0998436623        7.6229968268  MEMB      82              0.0000000000
     10152        82  DOPE      H12X           30.2271593650       22.9996647157        7.6539111136  MEMB      82              0.0000000000
     10153        82  DOPE      H12Y           31.7683650159       22.0896963518        7.4629959081  MEMB      82              0.0000000000
     10154        82  DOPE      C313           31.7155414560       24.0205279108        6.4723755424  MEMB      82              0.0000000000
     10155        82  DOPE      H13X           31.3574051558       25.0486313483        6.6989102254  MEMB      82              0.0000000000
     10156        82  DOPE      H13Y           32.8276508834       24.0775062615        6.4214673223  MEMB      82              0.0000000000
     10157        82  DOPE      C314           31.0943892073       23.7654639742        5.0993113241  MEMB      82              0.0000000000
     10158        82  DOPE      H14X           30.0153225765       24.0414880228        5.1211750335  MEMB      82              0.0000000000
     10159        82  DOPE      H14Y           31.1935820123       22.7163687537        4.7429324961  MEMB      82              0.0000000000
     10160        82  DOPE      C315           31.8448327620       24.7384350485        4.1966578723  MEMB      82              0.0000000000
     10161        82  DOPE      H15X           32.9121232614       24.5387184088        4.4128589349  MEMB      82              0.0000000000
     10162        82  DOPE      H15Y           31.6270765169       25.7761315504        4.5417016688  MEMB      82              0.0000000000
     10163        82  DOPE      C316           31.6312303656       24.5829485046        2.6924852257  MEMB      82              0.0000000000
     10164        82  DOPE      H16X           31.1499828794       25.5211100619        2.3458086408  MEMB      82              0.0000000000
     10165        82  DOPE      H16Y           30.9006980159       23.7624020130        2.5377943635  MEMB      82              0.0000000000
     10166        82  DOPE      C317           32.9600845544       24.2523574727        1.9617388940  MEMB      82              0.0000000000
     10167        82  DOPE      H17X           33.7656820879       24.9104841563        2.3273116159  MEMB      82              0.0000000000
     10168        82  DOPE      H17Y           33.2495135865       23.2233086380        2.2520560575  MEMB      82              0.0000000000
     10169        82  DOPE      C318           33.0239649165       24.3293281077        0.4322801389  MEMB      82              0.0000000000
     10170        82  DOPE      H18X           33.1079275892       25.3614655804        0.1027865835  MEMB      82              0.0000000000
     10171        82  DOPE      H18Y           33.9185188991       23.7985128955        0.0413538849  MEMB      82              0.0000000000
     10172        82  DOPE      H18Z           32.1235166912       23.9281771220       -0.0519371603  MEMB      82              0.0000000000
     10173        83  DOPC      N              34.7293683308      -12.0061163817       18.7474407511  MEMB      83              0.0000000000
     10174        83  DOPC      C12            35.0923481578      -12.9446241342       19.8988621045  MEMB      83              0.0000000000
     10175        83  DOPC      H12A           34.3065419777      -13.7044557647       20.0115722910  MEMB      83              0.0000000000
     10176        83  DOPC      H12B           35.1172538019      -12.4220809197       20.8389927246  MEMB      83              0.0000000000
     10177        83  DOPC      C13            33.5701199997      -11.1440695935       19.1103881992  MEMB      83              0.0000000000
     10178        83  DOPC      H13A           32.7054985261      -11.7752865383       19.3225143564  MEMB      83              0.0000000000
     10179        83  DOPC      H13B           33.7485088580      -10.5577231631       19.9991427383  MEMB      83              0.0000000000
     10180        83  DOPC      H13C           33.3104015259      -10.4889648731       18.2862030025  MEMB      83              0.0000000000
     10181        83  DOPC      C14            34.3450797314      -12.8498552032       17.5551797248  MEMB      83              0.0000000000
     10182        83  DOPC      H14A           34.0505692800      -12.2780413041       16.6888820255  MEMB      83              0.0000000000
     10183        83  DOPC      H14B           35.1919985366      -13.4861623347       17.2869256957  MEMB      83              0.0000000000
     10184        83  DOPC      H14C           33.5500312250      -13.5520710473       17.7985124745  MEMB      83              0.0000000000
     10185        83  DOPC      C15            35.9233337019      -11.1855968344       18.3727622882  MEMB      83              0.0000000000
     10186        83  DOPC      H15A           36.6743999190      -11.8602157942       17.9580817948  MEMB      83              0.0000000000
     10187        83  DOPC      H15B           36.3685660103      -10.7122977780       19.2404306053  MEMB      83              0.0000000000
     10188        83  DOPC      H15C           35.6956870566      -10.4427299498       17.6148075839  MEMB      83              0.0000000000
     10189        83  DOPC      C11            36.3896018505      -13.7654076542       19.7307463850  MEMB      83              0.0000000000
     10190        83  DOPC      H11A           37.2521711339      -13.1491941438       19.4064855319  MEMB      83              0.0000000000
     10191        83  DOPC      H11B           36.7129995476      -14.2186801714       20.6968572192  MEMB      83              0.0000000000
     10192        83  DOPC      P              35.3563167465      -16.0668874303       19.2204768675  MEMB      83              0.0000000000
     10193        83  DOPC      O13            34.1249252371      -15.6201855386       19.9053742262  MEMB      83              0.0000000000
     10194        83  DOPC      O14            36.2222199006      -17.0093967007       19.9615803087  MEMB      83              0.0000000000
     10195        83  DOPC      O12            36.1561317685      -14.7703036840       18.7598029799  MEMB      83              0.0000000000
     10196        83  DOPC      O11            35.0524223939      -16.7287435756       17.8120612864  MEMB      83              0.0000000000
     10197        83  DOPC      C1             36.2556126924      -16.9138151742       17.0343148021  MEMB      83              0.0000000000
     10198        83  DOPC      HA             36.9708926006      -17.6030970350       17.5429864659  MEMB      83              0.0000000000
     10199        83  DOPC      HB             36.7902606138      -15.9507544160       16.8703349896  MEMB      83              0.0000000000
     10200        83  DOPC      C2             35.9547118567      -17.5191659903       15.6512474289  MEMB      83              0.0000000000
     10201        83  DOPC      HS             36.9020158849      -17.5742054078       15.0582368847  MEMB      83              0.0000000000
     10202        83  DOPC      O21            34.9703266806      -16.7379681831       14.9356913933  MEMB      83              0.0000000000
     10203        83  DOPC      C21            35.4391399915      -15.5582577627       14.5589219835  MEMB      83              0.0000000000
     10204        83  DOPC      O22            36.5617906916      -15.1362950290       14.7261077086  MEMB      83              0.0000000000
     10205        83  DOPC      C22            34.3761897419      -14.7875250705       13.7875741193  MEMB      83              0.0000000000
     10206        83  DOPC      H2R            34.4982203771      -13.7053637555       13.9871663390  MEMB      83              0.0000000000
     10207        83  DOPC      H2S            33.3843011501      -15.1172402219       14.1584343921  MEMB      83              0.0000000000
     10208        83  DOPC      C3             35.4707225881      -18.9732257012       15.8214707183  MEMB      83              0.0000000000
     10209        83  DOPC      HX             34.7406639497      -19.0434359917       16.6605732339  MEMB      83              0.0000000000
     10210        83  DOPC      HY             36.3391996297      -19.6075490655       16.0938027534  MEMB      83              0.0000000000
     10211        83  DOPC      O31            34.9475226935      -19.4165491158       14.5710754415  MEMB      83              0.0000000000
     10212        83  DOPC      C31            33.6390718523      -19.2601991418       14.4400550930  MEMB      83              0.0000000000
     10213        83  DOPC      O32            32.8530074728      -19.0965403072       15.3508339198  MEMB      83              0.0000000000
     10214        83  DOPC      C32            33.3304124701      -19.3156895490       12.9598202387  MEMB      83              0.0000000000
     10215        83  DOPC      H2X            33.0925715752      -20.3519739134       12.6927077154  MEMB      83              0.0000000000
     10216        83  DOPC      H2Y            32.4391267130      -18.7115870443       12.7665269827  MEMB      83              0.0000000000
     10217        83  DOPC      C23            34.4747009787      -15.0714091233       12.2718048055  MEMB      83              0.0000000000
     10218        83  DOPC      H3R            33.5521034829      -14.7122069877       11.7633042698  MEMB      83              0.0000000000
     10219        83  DOPC      H3S            34.4898915439      -16.1630341445       12.1533994080  MEMB      83              0.0000000000
     10220        83  DOPC      C24            35.7042574943      -14.4888582764       11.5560868764  MEMB      83              0.0000000000
     10221        83  DOPC      H4R            36.6259478347      -14.6556524617       12.1555647301  MEMB      83              0.0000000000
     10222        83  DOPC      H4S            35.5731082690      -13.3909284499       11.4313486354  MEMB      83              0.0000000000
     10223        83  DOPC      C25            35.9302727407      -15.1015053058       10.1654267835  MEMB      83              0.0000000000
     10224        83  DOPC      H5R            36.1369166384      -16.1908128335       10.2527979805  MEMB      83              0.0000000000
     10225        83  DOPC      H5S            36.8466433540      -14.6633547998        9.7118443025  MEMB      83              0.0000000000
     10226        83  DOPC      C26            34.7372210188      -14.8627763888        9.2289605151  MEMB      83              0.0000000000
     10227        83  DOPC      H6R            34.3348278964      -13.8371423219        9.3755315819  MEMB      83              0.0000000000
     10228        83  DOPC      H6S            33.9199215987      -15.5831728232        9.4520493875  MEMB      83              0.0000000000
     10229        83  DOPC      C27            35.1546863735      -15.0172654553        7.7735485005  MEMB      83              0.0000000000
     10230        83  DOPC      H7R            35.7866162748      -15.9313451926        7.7348161378  MEMB      83              0.0000000000
     10231        83  DOPC      H7S            35.7916215243      -14.1529414717        7.4783000322  MEMB      83              0.0000000000
     10232        83  DOPC      C28            33.9801081690      -15.1508914115        6.8034832259  MEMB      83              0.0000000000
     10233        83  DOPC      H8R            33.3763735528      -14.2193261535        6.7678965469  MEMB      83              0.0000000000
     10234        83  DOPC      H8S            33.3062470627      -15.9766876387        7.1259901548  MEMB      83              0.0000000000
     10235        83  DOPC      C29            34.6160739543      -15.4861554610        5.4913185088  MEMB      83              0.0000000000
     10236        83  DOPC      H9R            35.3892995791      -16.2523793737        5.5632840967  MEMB      83              0.0000000000
     10237        83  DOPC      C210           34.4432851111      -14.8919598612        4.3156208902  MEMB      83              0.0000000000
     10238        83  DOPC      H10R           34.9510629673      -15.3478848099        3.4536870226  MEMB      83              0.0000000000
     10239        83  DOPC      C211           33.5402102291      -13.7167120412        4.0459433748  MEMB      83              0.0000000000
     10240        83  DOPC      H11R           33.8731045211      -12.8548286337        4.6670580698  MEMB      83              0.0000000000
     10241        83  DOPC      H11S           32.5019673243      -13.9535325684        4.3550286518  MEMB      83              0.0000000000
     10242        83  DOPC      C212           33.5707745028      -13.2611766718        2.5719831393  MEMB      83              0.0000000000
     10243        83  DOPC      H12R           32.9946385659      -12.3307686568        2.4266988003  MEMB      83              0.0000000000
     10244        83  DOPC      H12S           33.1252744709      -14.0441049377        1.9186396934  MEMB      83              0.0000000000
     10245        83  DOPC      C213           34.9998963995      -12.9499874921        2.1570360060  MEMB      83              0.0000000000
     10246        83  DOPC      H13R           35.4881914257      -13.9346203275        2.2633011976  MEMB      83              0.0000000000
     10247        83  DOPC      H13S           35.4667101879      -12.2432342832        2.8783595391  MEMB      83              0.0000000000
     10248        83  DOPC      C214           35.2417836583      -12.4703368823        0.7248056222  MEMB      83              0.0000000000
     10249        83  DOPC      H14R           34.8094858193      -11.4612515009        0.5634313575  MEMB      83              0.0000000000
     10250        83  DOPC      H14S           34.7181252217      -13.1716126234        0.0387207807  MEMB      83              0.0000000000
     10251        83  DOPC      C215           36.7503957836      -12.4620794350        0.4062521619  MEMB      83              0.0000000000
     10252        83  DOPC      H15R           37.1949850206      -11.4790346689        0.6716673068  MEMB      83              0.0000000000
     10253        83  DOPC      H15S           36.8969857371      -12.6158208605       -0.6852671252  MEMB      83              0.0000000000
     10254        83  DOPC      C216           37.4982501923      -13.5704195964        1.1606704566  MEMB      83              0.0000000000
     10255        83  DOPC      H16R           36.9877424372      -14.5319836621        0.9346924361  MEMB      83              0.0000000000
     10256        83  DOPC      H16S           37.4566050854      -13.4149133580        2.2659525157  MEMB      83              0.0000000000
     10257        83  DOPC      C217           38.9613676540      -13.7269895350        0.8300446016  MEMB      83              0.0000000000
     10258        83  DOPC      H17R           39.4423597100      -12.8684527420        1.3005388580  MEMB      83              0.0000000000
     10259        83  DOPC      H17S           39.1570987651      -13.6208984905       -0.2519234521  MEMB      83              0.0000000000
     10260        83  DOPC      C218           39.4896462770      -15.0563693086        1.3666304812  MEMB      83              0.0000000000
     10261        83  DOPC      H18R           40.0317657538      -14.9350776438        2.3277403547  MEMB      83              0.0000000000
     10262        83  DOPC      H18S           40.1437532136      -15.5632078587        0.6271943793  MEMB      83              0.0000000000
     10263        83  DOPC      H18T           38.6313182066      -15.7289358341        1.5553400417  MEMB      83              0.0000000000
     10264        83  DOPC      C33            34.4664694801      -18.7704303740       12.0898208744  MEMB      83              0.0000000000
     10265        83  DOPC      H3X            35.1934260012      -19.5845899862       11.8741997629  MEMB      83              0.0000000000
     10266        83  DOPC      H3Y            35.0558997193      -17.9945362820       12.6179025412  MEMB      83              0.0000000000
     10267        83  DOPC      C34            33.8967715790      -18.1862874220       10.8014983161  MEMB      83              0.0000000000
     10268        83  DOPC      H4X            34.5120778095      -17.3324572114       10.4720341271  MEMB      83              0.0000000000
     10269        83  DOPC      H4Y            32.8438290240      -17.8435782345       10.8942462841  MEMB      83              0.0000000000
     10270        83  DOPC      C35            34.0575279397      -19.2393644847        9.7482945362  MEMB      83              0.0000000000
     10271        83  DOPC      H5X            33.5323105845      -20.1393014809       10.0733556158  MEMB      83              0.0000000000
     10272        83  DOPC      H5Y            35.1289570339      -19.5038238264        9.8284788338  MEMB      83              0.0000000000
     10273        83  DOPC      C36            33.6939025583      -18.8124920195        8.3339715638  MEMB      83              0.0000000000
     10274        83  DOPC      H6X            32.6076559878      -18.6315180750        8.2376604856  MEMB      83              0.0000000000
     10275        83  DOPC      H6Y            34.1603538030      -17.8269151678        8.1144978396  MEMB      83              0.0000000000
     10276        83  DOPC      C37            34.2125083744      -19.8675275904        7.3411001311  MEMB      83              0.0000000000
     10277        83  DOPC      H7X            33.6312807343      -20.8078876878        7.4499654298  MEMB      83              0.0000000000
     10278        83  DOPC      H7Y            34.0662048240      -19.5097895921        6.3014356972  MEMB      83              0.0000000000
     10279        83  DOPC      C38            35.7032421017      -20.1808411572        7.5563287454  MEMB      83              0.0000000000
     10280        83  DOPC      H8X            36.0761882621      -20.8053452203        6.7177831644  MEMB      83              0.0000000000
     10281        83  DOPC      H8Y            35.8485029278      -20.7869510925        8.4717919202  MEMB      83              0.0000000000
     10282        83  DOPC      C39            36.4553662448      -18.8901653122        7.7100660892  MEMB      83              0.0000000000
     10283        83  DOPC      H9X            36.6410760282      -18.5285304199        8.7336468081  MEMB      83              0.0000000000
     10284        83  DOPC      C310           36.7928188058      -18.1314680628        6.6856390139  MEMB      83              0.0000000000
     10285        83  DOPC      H10X           37.2797798490      -17.1592324909        6.8565863709  MEMB      83              0.0000000000
     10286        83  DOPC      C311           36.4646269718      -18.4909811921        5.2741296791  MEMB      83              0.0000000000
     10287        83  DOPC      H11X           35.4557072168      -18.1395024319        4.9681769205  MEMB      83              0.0000000000
     10288        83  DOPC      H11Y           36.4747980353      -19.5843043581        5.0803191604  MEMB      83              0.0000000000
     10289        83  DOPC      C312           37.5252009310      -17.7928224376        4.4573190778  MEMB      83              0.0000000000
     10290        83  DOPC      H12X           38.5338867491      -18.1888966511        4.6399604084  MEMB      83              0.0000000000
     10291        83  DOPC      H12Y           37.5530561580      -16.7000767887        4.6874900705  MEMB      83              0.0000000000
     10292        83  DOPC      C313           37.2281923480      -17.9577585335        2.9956460072  MEMB      83              0.0000000000
     10293        83  DOPC      H13X           36.2417146253      -17.4712485381        2.8528480119  MEMB      83              0.0000000000
     10294        83  DOPC      H13Y           37.9868811330      -17.3566886625        2.4702216527  MEMB      83              0.0000000000
     10295        83  DOPC      C314           37.2249444988      -19.4072296980        2.4669687315  MEMB      83              0.0000000000
     10296        83  DOPC      H14X           38.1707206508      -19.9193606300        2.7104602918  MEMB      83              0.0000000000
     10297        83  DOPC      H14Y           36.4258810655      -19.9901172037        2.9692424492  MEMB      83              0.0000000000
     10298        83  DOPC      C315           37.0479111214      -19.5020579548        0.9403927144  MEMB      83              0.0000000000
     10299        83  DOPC      H15X           36.2712013838      -20.2692233661        0.7418199271  MEMB      83              0.0000000000
     10300        83  DOPC      H15Y           37.9654268215      -19.8855071222        0.4549282093  MEMB      83              0.0000000000
     10301        83  DOPC      C316           36.6131391662      -18.1676711614        0.3196892936  MEMB      83              0.0000000000
     10302        83  DOPC      H16X           37.2408071706      -17.3174779381        0.6414882728  MEMB      83              0.0000000000
     10303        83  DOPC      H16Y           36.7130133782      -18.2035662069       -0.7828400807  MEMB      83              0.0000000000
     10304        83  DOPC      C317           35.1508456093      -17.9817171790        0.6917416438  MEMB      83              0.0000000000
     10305        83  DOPC      H17X           34.6064757244      -18.4781569367       -0.1328865300  MEMB      83              0.0000000000
     10306        83  DOPC      H17Y           34.9760781619      -18.5550051689        1.6324961980  MEMB      83              0.0000000000
     10307        83  DOPC      C318           34.5421060478      -16.6128440021        0.9263103667  MEMB      83              0.0000000000
     10308        83  DOPC      H18X           35.2823494568      -15.8687655116        1.2780283341  MEMB      83              0.0000000000
     10309        83  DOPC      H18Y           34.1269760622      -16.3051791056       -0.0398752535  MEMB      83              0.0000000000
     10310        83  DOPC      H18Z           33.6873668756      -16.6636615322        1.6397944524  MEMB      83              0.0000000000
     10311        84  23SM      N             -35.4439294131      -18.7369122616       28.0436690684  MEMB      84              0.0000000000
     10312        84  23SM      C15           -35.0560151329      -20.0946596616       27.5443600582  MEMB      84              0.0000000000
     10313        84  23SM      H15A          -35.9275805702      -20.7276323572       27.3981753204  MEMB      84              0.0000000000
     10314        84  23SM      H15B          -34.4179947403      -20.6174087046       28.2547353649  MEMB      84              0.0000000000
     10315        84  23SM      H15C          -34.5186857006      -20.0236519410       26.6076796061  MEMB      84              0.0000000000
     10316        84  23SM      C14           -36.3080459877      -18.9253276847       29.2504179181  MEMB      84              0.0000000000
     10317        84  23SM      H14A          -35.7264452541      -19.3020567610       30.0809001699  MEMB      84              0.0000000000
     10318        84  23SM      H14B          -37.0928163105      -19.6510721013       29.0322227925  MEMB      84              0.0000000000
     10319        84  23SM      H14C          -36.7823354931      -18.0004834975       29.5465753419  MEMB      84              0.0000000000
     10320        84  23SM      C13           -34.1889205347      -18.0293699441       28.4343236848  MEMB      84              0.0000000000
     10321        84  23SM      H13A          -33.5946372950      -18.6186175541       29.1179538726  MEMB      84              0.0000000000
     10322        84  23SM      H13B          -34.3885089175      -17.0663458992       28.8941554376  MEMB      84              0.0000000000
     10323        84  23SM      H13C          -33.5827080554      -17.8450772846       27.5417553627  MEMB      84              0.0000000000
     10324        84  23SM      C12           -36.1837378370      -17.9773702600       26.9645533688  MEMB      84              0.0000000000
     10325        84  23SM      H12A          -36.1122711283      -16.9267089743       27.2174589303  MEMB      84              0.0000000000
     10326        84  23SM      H12B          -37.2267785097      -18.2728204996       26.9614037096  MEMB      84              0.0000000000
     10327        84  23SM      C11           -35.6894230295      -18.0575986008       25.5054604231  MEMB      84              0.0000000000
     10328        84  23SM      H11A          -36.3829382632      -17.4235512350       24.9001068355  MEMB      84              0.0000000000
     10329        84  23SM      H11B          -35.7593471584      -19.1083151515       25.1461576868  MEMB      84              0.0000000000
     10330        84  23SM      P             -33.6772711161      -17.4187763629       23.9686527623  MEMB      84              0.0000000000
     10331        84  23SM      O13           -33.9907749197      -16.0996373029       23.3969151390  MEMB      84              0.0000000000
     10332        84  23SM      O14           -32.2492210788      -17.7823391126       24.0762857103  MEMB      84              0.0000000000
     10333        84  23SM      O11           -34.4095790909      -18.5146130661       23.0534800481  MEMB      84              0.0000000000
     10334        84  23SM      O12           -34.3634241063      -17.5707252032       25.3987982866  MEMB      84              0.0000000000
     10335        84  23SM      C1S           -35.5073311332      -18.1562646931       22.1951829980  MEMB      84              0.0000000000
     10336        84  23SM      H1S           -36.1053662513      -17.3196600626       22.6152262308  MEMB      84              0.0000000000
     10337        84  23SM      H1T           -36.1952788358      -19.0244119035       22.1133914398  MEMB      84              0.0000000000
     10338        84  23SM      NF            -36.1596804854      -17.4257651492       19.8590759339  MEMB      84              0.0000000000
     10339        84  23SM      HNF           -36.2176705284      -17.8900602022       18.9819859528  MEMB      84              0.0000000000
     10340        84  23SM      C2S           -35.0478813068      -17.8028172809       20.7388223305  MEMB      84              0.0000000000
     10341        84  23SM      H2S           -34.3516603780      -16.9359198368       20.7927661063  MEMB      84              0.0000000000
     10342        84  23SM      C3S           -34.2642487291      -19.0424449460       20.1876325205  MEMB      84              0.0000000000
     10343        84  23SM      H3S           -34.9006795537      -19.9405135112       20.3107786505  MEMB      84              0.0000000000
     10344        84  23SM      O3            -33.0697644256      -19.2899661767       20.9218757175  MEMB      84              0.0000000000
     10345        84  23SM      HO3           -33.2875898668      -18.8951519855       21.7798641721  MEMB      84              0.0000000000
     10346        84  23SM      C4S           -33.8971113930      -18.8518056665       18.7354461407  MEMB      84              0.0000000000
     10347        84  23SM      H4S           -33.1554407234      -18.0635570238       18.5425156692  MEMB      84              0.0000000000
     10348        84  23SM      C5S           -34.3466171909      -19.6060894853       17.7077842439  MEMB      84              0.0000000000
     10349        84  23SM      H5S           -35.0032611481      -20.4714788729       17.9111011433  MEMB      84              0.0000000000
     10350        84  23SM      C6S           -34.0025113263      -19.4502553785       16.2480422554  MEMB      84              0.0000000000
     10351        84  23SM      H6S           -34.9511171836      -19.4489344372       15.6698475268  MEMB      84              0.0000000000
     10352        84  23SM      H6T           -33.4520982715      -20.3585680165       15.9142488066  MEMB      84              0.0000000000
     10353        84  23SM      C7S           -33.2048198680      -18.1975259934       15.8253149649  MEMB      84              0.0000000000
     10354        84  23SM      H7S           -32.2328479551      -18.1538836534       16.3648753156  MEMB      84              0.0000000000
     10355        84  23SM      H7T           -33.8036754184      -17.3064704791       16.1182255819  MEMB      84              0.0000000000
     10356        84  23SM      C8S           -32.9567435187      -18.1209973214       14.3004011736  MEMB      84              0.0000000000
     10357        84  23SM      H8S           -32.7455068534      -17.0675893138       14.0124001359  MEMB      84              0.0000000000
     10358        84  23SM      H8T           -33.9009888984      -18.4197554505       13.7937328794  MEMB      84              0.0000000000
     10359        84  23SM      C9S           -31.7996876457      -19.0182733426       13.8145445758  MEMB      84              0.0000000000
     10360        84  23SM      H9S           -31.7714097484      -19.8671737007       14.5412069732  MEMB      84              0.0000000000
     10361        84  23SM      H9T           -30.8181476755      -18.5135570746       13.8960411825  MEMB      84              0.0000000000
     10362        84  23SM      C10S          -32.0081014649      -19.6832344825       12.4343111437  MEMB      84              0.0000000000
     10363        84  23SM      H10S          -33.1034782879      -19.8063289260       12.2880175615  MEMB      84              0.0000000000
     10364        84  23SM      H10T          -31.5248512794      -20.6885287309       12.4757153851  MEMB      84              0.0000000000
     10365        84  23SM      C11S          -31.5186321127      -19.0082680732       11.1525904979  MEMB      84              0.0000000000
     10366        84  23SM      H11S          -30.4192809190      -18.8466729352       11.1830463779  MEMB      84              0.0000000000
     10367        84  23SM      H11T          -32.0056085126      -18.0090963771       11.0791172584  MEMB      84              0.0000000000
     10368        84  23SM      C12S          -31.8829403047      -19.8600484482        9.8997091345  MEMB      84              0.0000000000
     10369        84  23SM      H12S          -32.9456273016      -20.1768244629        9.9642663333  MEMB      84              0.0000000000
     10370        84  23SM      H12T          -31.2409636934      -20.7655947102        9.8480843563  MEMB      84              0.0000000000
     10371        84  23SM      C13S          -31.7204807291      -18.9937927460        8.6628169933  MEMB      84              0.0000000000
     10372        84  23SM      H13S          -30.6708350696      -18.6703284799        8.6472326486  MEMB      84              0.0000000000
     10373        84  23SM      H13T          -32.3593062671      -18.1178263347        8.9274215842  MEMB      84              0.0000000000
     10374        84  23SM      C14S          -32.1683052554      -19.3880786575        7.2409185627  MEMB      84              0.0000000000
     10375        84  23SM      H14S          -32.8094028820      -18.5375942841        6.9216259837  MEMB      84              0.0000000000
     10376        84  23SM      H14T          -32.8229530869      -20.2656902362        7.2594001150  MEMB      84              0.0000000000
     10377        84  23SM      C15S          -31.1360941410      -19.3606752382        6.0812870500  MEMB      84              0.0000000000
     10378        84  23SM      H15S          -30.3333878453      -20.1178347149        6.1925608612  MEMB      84              0.0000000000
     10379        84  23SM      H15T          -30.6534421442      -18.3618588160        6.0848993956  MEMB      84              0.0000000000
     10380        84  23SM      C16S          -31.8541000522      -19.5257622764        4.7264754099  MEMB      84              0.0000000000
     10381        84  23SM      H16S          -32.9223932199      -19.3403311534        4.9555035231  MEMB      84              0.0000000000
     10382        84  23SM      H16T          -31.7674399450      -20.5588648514        4.3363599329  MEMB      84              0.0000000000
     10383        84  23SM      C17S          -31.6012372298      -18.5229180963        3.6023081018  MEMB      84              0.0000000000
     10384        84  23SM      H17S          -30.5241005078      -18.2886699525        3.4931190532  MEMB      84              0.0000000000
     10385        84  23SM      H17T          -32.1307893796      -17.5841368366        3.8873472037  MEMB      84              0.0000000000
     10386        84  23SM      C18S          -32.1858130165      -19.0140261084        2.2705780036  MEMB      84              0.0000000000
     10387        84  23SM      H18S          -31.3946914269      -19.4288876031        1.6123103311  MEMB      84              0.0000000000
     10388        84  23SM      H18T          -32.7031874746      -18.1891782057        1.7352839671  MEMB      84              0.0000000000
     10389        84  23SM      H18U          -32.9381966361      -19.8111970283        2.4461490664  MEMB      84              0.0000000000
     10390        84  23SM      C1F           -36.8970698987      -16.3265823887       20.0266936585  MEMB      84              0.0000000000
     10391        84  23SM      OF            -37.0410886291      -15.7622216430       21.1026392749  MEMB      84              0.0000000000
     10392        84  23SM      C2F           -37.5232527652      -15.7941734651       18.7917463100  MEMB      84              0.0000000000
     10393        84  23SM      H2F           -38.5651266088      -15.5334399428       19.0209771439  MEMB      84              0.0000000000
     10394        84  23SM      H2G           -37.5337551635      -16.5890147560       18.0182476271  MEMB      84              0.0000000000
     10395        84  23SM      C3F           -36.7796723152      -14.5249036718       18.3248227108  MEMB      84              0.0000000000
     10396        84  23SM      H3F           -35.7115734748      -14.7952867620       18.1776389176  MEMB      84              0.0000000000
     10397        84  23SM      H3G           -36.8312259105      -13.7469651976       19.1142588785  MEMB      84              0.0000000000
     10398        84  23SM      C4F           -37.3232045396      -13.9757078647       16.9965451293  MEMB      84              0.0000000000
     10399        84  23SM      H4F           -36.7573342501      -13.0693420968       16.6889022961  MEMB      84              0.0000000000
     10400        84  23SM      H4G           -38.3988662319      -13.7034944430       17.0926850920  MEMB      84              0.0000000000
     10401        84  23SM      C5F           -37.1789400891      -15.0376958225       15.9103053125  MEMB      84              0.0000000000
     10402        84  23SM      H5F           -37.9520241839      -15.8157617206       16.0896840633  MEMB      84              0.0000000000
     10403        84  23SM      H5G           -36.1745696151      -15.5049532174       16.0202504260  MEMB      84              0.0000000000
     10404        84  23SM      C6F           -37.3420191157      -14.5445105001       14.4758280375  MEMB      84              0.0000000000
     10405        84  23SM      H6F           -36.6153111931      -13.7543571493       14.2440462912  MEMB      84              0.0000000000
     10406        84  23SM      H6G           -38.3116071263      -14.0192651801       14.3670158451  MEMB      84              0.0000000000
     10407        84  23SM      C7F           -37.2664685250      -15.7009053507       13.4559855373  MEMB      84              0.0000000000
     10408        84  23SM      H7F           -36.6611459463      -15.3941409424       12.5800820167  MEMB      84              0.0000000000
     10409        84  23SM      H7G           -38.2973617197      -15.8783746022       13.0775195499  MEMB      84              0.0000000000
     10410        84  23SM      C8F           -36.7317168526      -17.0397156795       14.0066270995  MEMB      84              0.0000000000
     10411        84  23SM      H8F           -37.3435112396      -17.3436401210       14.8849806257  MEMB      84              0.0000000000
     10412        84  23SM      H8G           -35.6722756173      -16.9569207878       14.3360675994  MEMB      84              0.0000000000
     10413        84  23SM      C9F           -36.8759451642      -18.1664065268       12.9916746075  MEMB      84              0.0000000000
     10414        84  23SM      H9F           -36.0233626194      -18.1441440577       12.2797468209  MEMB      84              0.0000000000
     10415        84  23SM      H9G           -37.8098478137      -17.9743438455       12.4125032070  MEMB      84              0.0000000000
     10416        84  23SM      C10F          -37.0134380278      -19.5518451354       13.6336795168  MEMB      84              0.0000000000
     10417        84  23SM      H10F          -37.6240171412      -19.4914673196       14.5631434855  MEMB      84              0.0000000000
     10418        84  23SM      H10G          -36.0109432057      -19.9488357529       13.9043287479  MEMB      84              0.0000000000
     10419        84  23SM      C11F          -37.7085590588      -20.5024426845       12.6676637106  MEMB      84              0.0000000000
     10420        84  23SM      H11F          -38.6741192096      -20.0454452568       12.3480942435  MEMB      84              0.0000000000
     10421        84  23SM      H11G          -37.9390967427      -21.4733326558       13.1574457649  MEMB      84              0.0000000000
     10422        84  23SM      C12F          -36.8574414181      -20.7679784356       11.4317748909  MEMB      84              0.0000000000
     10423        84  23SM      H12F          -36.0460574427      -21.4666854124       11.6863007963  MEMB      84              0.0000000000
     10424        84  23SM      H12G          -36.3775161261      -19.8351733307       11.0648953164  MEMB      84              0.0000000000
     10425        84  23SM      C13F          -37.7069488645      -21.3260127645       10.3152430176  MEMB      84              0.0000000000
     10426        84  23SM      H13F          -38.7512347066      -21.3859889366       10.6911359469  MEMB      84              0.0000000000
     10427        84  23SM      H13G          -37.4053064895      -22.3718448731       10.0675048922  MEMB      84              0.0000000000
     10428        84  23SM      C14F          -37.6843168129      -20.3729155728        9.1063272393  MEMB      84              0.0000000000
     10429        84  23SM      H14F          -36.6944199586      -19.8798990336        9.0029423015  MEMB      84              0.0000000000
     10430        84  23SM      H14G          -38.4389129693      -19.5883254660        9.3083136304  MEMB      84              0.0000000000
     10431        84  23SM      C15F          -37.9358463997      -21.1836755535        7.8496244183  MEMB      84              0.0000000000
     10432        84  23SM      H15F          -38.9431118019      -21.6444249816        7.9094604360  MEMB      84              0.0000000000
     10433        84  23SM      H15G          -37.2259693731      -22.0216849944        7.9525503867  MEMB      84              0.0000000000
     10434        84  23SM      C16F          -37.6914790719      -20.6700017991        6.4168237522  MEMB      84              0.0000000000
     10435        84  23SM      H16F          -38.6474379024      -20.4555766436        5.9083212822  MEMB      84              0.0000000000
     10436        84  23SM      H16G          -37.2940219746      -21.5748638796        5.9051257983  MEMB      84              0.0000000000
     10437        84  23SM      C17F          -36.6755493914      -19.5751046045        6.0605658433  MEMB      84              0.0000000000
     10438        84  23SM      H17F          -35.7732099397      -19.5830898806        6.6966394050  MEMB      84              0.0000000000
     10439        84  23SM      H17G          -37.1555477004      -18.5907419705        6.2247790788  MEMB      84              0.0000000000
     10440        84  23SM      C18F          -36.2836403195      -19.7770539674        4.5675761112  MEMB      84              0.0000000000
     10441        84  23SM      H18F          -37.2214181678      -19.9242740887        4.0112430355  MEMB      84              0.0000000000
     10442        84  23SM      H18G          -35.7331467612      -20.7328362861        4.4585905594  MEMB      84              0.0000000000
     10443        84  23SM      C19F          -35.4797216979      -18.6410990701        3.9153439062  MEMB      84              0.0000000000
     10444        84  23SM      H19F          -34.4354766640      -18.9518966865        3.7672740835  MEMB      84              0.0000000000
     10445        84  23SM      H19G          -35.5091462006      -17.8239019309        4.6516193029  MEMB      84              0.0000000000
     10446        84  23SM      C20F          -35.9769604668      -17.9796692500        2.6129412810  MEMB      84              0.0000000000
     10447        84  23SM      H20F          -35.2039053180      -17.2781797270        2.2285978719  MEMB      84              0.0000000000
     10448        84  23SM      H20G          -36.8329567953      -17.3394796447        2.9187882805  MEMB      84              0.0000000000
     10449        84  23SM      C21F          -36.4611061009      -18.8842755795        1.4709746333  MEMB      84              0.0000000000
     10450        84  23SM      H21F          -37.4619751424      -18.4756624599        1.2103282394  MEMB      84              0.0000000000
     10451        84  23SM      H21G          -36.5929972047      -19.9370429940        1.7939829584  MEMB      84              0.0000000000
     10452        84  23SM      C22F          -35.7050403189      -18.8085472981        0.1391055775  MEMB      84              0.0000000000
     10453        84  23SM      H22F          -34.8237478370      -19.4853934321        0.1746176126  MEMB      84              0.0000000000
     10454        84  23SM      H22G          -35.3389230955      -17.7682182683       -0.0136509330  MEMB      84              0.0000000000
     10455        84  23SM      C23F          -36.6101917687      -19.1774770972       -1.0473890238  MEMB      84              0.0000000000
     10456        84  23SM      H23F          -36.9765046671      -20.2222436304       -0.9517182619  MEMB      84              0.0000000000
     10457        84  23SM      H23G          -36.0723186451      -19.0779968105       -2.0127090405  MEMB      84              0.0000000000
     10458        84  23SM      H23H          -37.4994264347      -18.5088952144       -1.0765633930  MEMB      84              0.0000000000
     10459        85  DOPC      N              26.7904462799      -26.4281550078       18.8452597567  MEMB      85              0.0000000000
     10460        85  DOPC      C12            28.0363157883      -26.4798787387       17.9849792955  MEMB      85              0.0000000000
     10461        85  DOPC      H12A           28.6133046233      -25.5861788763       18.2096822684  MEMB      85              0.0000000000
     10462        85  DOPC      H12B           27.7312274528      -26.4287421987       16.9445541597  MEMB      85              0.0000000000
     10463        85  DOPC      C13            26.0315023469      -25.2064337395       18.4791859592  MEMB      85              0.0000000000
     10464        85  DOPC      H13A           26.6083431015      -24.3010235311       18.5193949020  MEMB      85              0.0000000000
     10465        85  DOPC      H13B           25.5723663507      -25.3218754201       17.4981431435  MEMB      85              0.0000000000
     10466        85  DOPC      H13C           25.2070527391      -25.0826773854       19.1887591614  MEMB      85              0.0000000000
     10467        85  DOPC      C14            27.1781361137      -26.3676038389       20.2828451930  MEMB      85              0.0000000000
     10468        85  DOPC      H14A           26.3187191161      -26.3736743248       20.9409384921  MEMB      85              0.0000000000
     10469        85  DOPC      H14B           27.8533572547      -27.2006497917       20.4866494343  MEMB      85              0.0000000000
     10470        85  DOPC      H14C           27.7733315452      -25.4910364631       20.5022708031  MEMB      85              0.0000000000
     10471        85  DOPC      C15            25.8763553922      -27.6038544855       18.6654489970  MEMB      85              0.0000000000
     10472        85  DOPC      H15A           25.7111601916      -27.8437100052       17.6183735314  MEMB      85              0.0000000000
     10473        85  DOPC      H15B           24.8771848760      -27.3705227107       19.0334872027  MEMB      85              0.0000000000
     10474        85  DOPC      H15C           26.2805946418      -28.4637750693       19.1820966663  MEMB      85              0.0000000000
     10475        85  DOPC      C11            29.0191604904      -27.6587923692       18.1471572686  MEMB      85              0.0000000000
     10476        85  DOPC      H11A           28.5350962301      -28.5753923161       17.8046525036  MEMB      85              0.0000000000
     10477        85  DOPC      H11B           29.8534525552      -27.5294106001       17.4333736976  MEMB      85              0.0000000000
     10478        85  DOPC      P              30.8210879087      -27.2390297799       19.9687996893  MEMB      85              0.0000000000
     10479        85  DOPC      O13            31.3044034808      -27.9532460997       21.1607146519  MEMB      85              0.0000000000
     10480        85  DOPC      O14            30.7386113281      -25.7633101994       19.9514858668  MEMB      85              0.0000000000
     10481        85  DOPC      O12            29.4708972697      -27.8649142404       19.4809408978  MEMB      85              0.0000000000
     10482        85  DOPC      O11            31.8027074529      -27.7506437335       18.8402620242  MEMB      85              0.0000000000
     10483        85  DOPC      C1             32.7943888293      -26.8821107284       18.3089156933  MEMB      85              0.0000000000
     10484        85  DOPC      HA             33.8045742915      -27.2747150630       18.5370282911  MEMB      85              0.0000000000
     10485        85  DOPC      HB             32.7763129826      -25.8464358192       18.7330088654  MEMB      85              0.0000000000
     10486        85  DOPC      C2             32.6534229618      -26.7536987669       16.7807405668  MEMB      85              0.0000000000
     10487        85  DOPC      HS             33.4779843921      -26.0596837210       16.5107267911  MEMB      85              0.0000000000
     10488        85  DOPC      O21            31.3478505477      -26.2750020108       16.4338508427  MEMB      85              0.0000000000
     10489        85  DOPC      C21            31.3962205913      -25.1613232652       15.7719037699  MEMB      85              0.0000000000
     10490        85  DOPC      O22            32.2568443087      -24.3124119409       15.8446427299  MEMB      85              0.0000000000
     10491        85  DOPC      C22            30.3105803830      -25.1719223737       14.7481264501  MEMB      85              0.0000000000
     10492        85  DOPC      H2R            29.3773392632      -25.6342518359       15.1217963711  MEMB      85              0.0000000000
     10493        85  DOPC      H2S            30.7308846607      -25.8242023859       13.9525762336  MEMB      85              0.0000000000
     10494        85  DOPC      C3             32.9131260213      -28.0682852883       15.9832925156  MEMB      85              0.0000000000
     10495        85  DOPC      HX             33.4979214136      -28.7507085813       16.6334809545  MEMB      85              0.0000000000
     10496        85  DOPC      HY             33.6029358955      -27.7764463913       15.1561130536  MEMB      85              0.0000000000
     10497        85  DOPC      O31            31.7146986907      -28.6730807355       15.4173085959  MEMB      85              0.0000000000
     10498        85  DOPC      C31            31.2397155667      -29.6917988333       16.1260096198  MEMB      85              0.0000000000
     10499        85  DOPC      O32            31.8491190919      -30.2928562334       16.9938988352  MEMB      85              0.0000000000
     10500        85  DOPC      C32            29.7810449644      -30.0137098243       15.8310534746  MEMB      85              0.0000000000
     10501        85  DOPC      H2X            29.7726312184      -30.9470834995       15.2435285561  MEMB      85              0.0000000000
     10502        85  DOPC      H2Y            29.3318601179      -30.3144181413       16.7930725982  MEMB      85              0.0000000000
     10503        85  DOPC      C23            30.0890237879      -23.7452764288       14.2398895672  MEMB      85              0.0000000000
     10504        85  DOPC      H3R            31.0369960634      -23.3328325122       13.8154482257  MEMB      85              0.0000000000
     10505        85  DOPC      H3S            29.7931413804      -23.0624151806       15.0706693235  MEMB      85              0.0000000000
     10506        85  DOPC      C24            29.0212206898      -23.7558503563       13.1630224646  MEMB      85              0.0000000000
     10507        85  DOPC      H4R            28.9444697939      -22.7439340094       12.7232398405  MEMB      85              0.0000000000
     10508        85  DOPC      H4S            28.0441785554      -23.9671010775       13.6575905445  MEMB      85              0.0000000000
     10509        85  DOPC      C25            29.2491350686      -24.8369043992       12.0878482398  MEMB      85              0.0000000000
     10510        85  DOPC      H5R            28.5645341596      -24.6116467171       11.2375567193  MEMB      85              0.0000000000
     10511        85  DOPC      H5S            28.9480085808      -25.8255588190       12.5038194868  MEMB      85              0.0000000000
     10512        85  DOPC      C26            30.6614118719      -25.0530744284       11.5433294860  MEMB      85              0.0000000000
     10513        85  DOPC      H6R            30.9881545896      -26.1067967306       11.7008942634  MEMB      85              0.0000000000
     10514        85  DOPC      H6S            31.4046176691      -24.3872456133       12.0388109804  MEMB      85              0.0000000000
     10515        85  DOPC      C27            30.7029884244      -24.7026365749       10.0764185446  MEMB      85              0.0000000000
     10516        85  DOPC      H7R            31.7811327006      -24.5422822891        9.8241928106  MEMB      85              0.0000000000
     10517        85  DOPC      H7S            30.1108676662      -23.7575610874        9.9822919773  MEMB      85              0.0000000000
     10518        85  DOPC      C28            30.0941269211      -25.6561588313        9.0879529841  MEMB      85              0.0000000000
     10519        85  DOPC      H8R            28.9904401702      -25.7252686768        9.2316239774  MEMB      85              0.0000000000
     10520        85  DOPC      H8S            30.5132844335      -26.6792831150        9.1979948886  MEMB      85              0.0000000000
     10521        85  DOPC      C29            30.4682363743      -24.9650612066        7.8001853922  MEMB      85              0.0000000000
     10522        85  DOPC      H9R            29.7724138056      -24.1607560924        7.5065458393  MEMB      85              0.0000000000
     10523        85  DOPC      C210           31.4561321071      -25.3255202383        6.9792075335  MEMB      85              0.0000000000
     10524        85  DOPC      H10R           31.6903255908      -24.6864217579        6.1118853451  MEMB      85              0.0000000000
     10525        85  DOPC      C211           32.3475274922      -26.5037934754        7.2730821242  MEMB      85              0.0000000000
     10526        85  DOPC      H11R           32.3728682688      -26.6240867163        8.3665499772  MEMB      85              0.0000000000
     10527        85  DOPC      H11S           33.3599069357      -26.1445006546        7.0446759936  MEMB      85              0.0000000000
     10528        85  DOPC      C212           32.1085664541      -27.9234489072        6.5349645683  MEMB      85              0.0000000000
     10529        85  DOPC      H12R           31.3138484502      -27.9279171874        7.3246391521  MEMB      85              0.0000000000
     10530        85  DOPC      H12S           33.1288222456      -28.1596310275        6.8840119110  MEMB      85              0.0000000000
     10531        85  DOPC      C213           31.8898267969      -29.4976742818        6.7786156359  MEMB      85              0.0000000000
     10532        85  DOPC      H13R           30.9159573047      -29.8038441983        6.3486811609  MEMB      85              0.0000000000
     10533        85  DOPC      H13S           31.8183966318      -29.7434184149        7.8604215637  MEMB      85              0.0000000000
     10534        85  DOPC      C214           32.9935017841      -30.4538788301        6.2533556730  MEMB      85              0.0000000000
     10535        85  DOPC      H14R           33.2153017978      -31.1985917254        7.0618533503  MEMB      85              0.0000000000
     10536        85  DOPC      H14S           33.8860549598      -29.8686109815        6.0922649729  MEMB      85              0.0000000000
     10537        85  DOPC      C215           32.8164047234      -31.2513029802        4.9452902275  MEMB      85              0.0000000000
     10538        85  DOPC      H15R           32.3877954287      -32.2469906514        5.1830761722  MEMB      85              0.0000000000
     10539        85  DOPC      H15S           33.8339833080      -31.4572280572        4.5407251679  MEMB      85              0.0000000000
     10540        85  DOPC      C216           31.9597160008      -30.6361174141        3.8347229332  MEMB      85              0.0000000000
     10541        85  DOPC      H16R           32.5832674637      -29.9680307335        3.2088622559  MEMB      85              0.0000000000
     10542        85  DOPC      H16S           31.1283246136      -30.0290330083        4.2489773980  MEMB      85              0.0000000000
     10543        85  DOPC      C217           31.3661053426      -31.7266550654        2.9394934347  MEMB      85              0.0000000000
     10544        85  DOPC      H17R           30.6270347195      -31.2680461091        2.2526595045  MEMB      85              0.0000000000
     10545        85  DOPC      H17S           30.8173250920      -32.4580574092        3.5742759356  MEMB      85              0.0000000000
     10546        85  DOPC      C218           32.4159562915      -32.4640085416        2.1154325269  MEMB      85              0.0000000000
     10547        85  DOPC      H18R           31.9507820200      -33.3006480602        1.5576271249  MEMB      85              0.0000000000
     10548        85  DOPC      H18S           33.2056201705      -32.8786847291        2.7758589746  MEMB      85              0.0000000000
     10549        85  DOPC      H18T           32.8854727231      -31.7680256017        1.3883568476  MEMB      85              0.0000000000
     10550        85  DOPC      C33            28.9143331198      -28.9061722177       15.1989792770  MEMB      85              0.0000000000
     10551        85  DOPC      H3X            29.4744091343      -27.9594881030       15.0185610455  MEMB      85              0.0000000000
     10552        85  DOPC      H3Y            28.0292884378      -28.6642634616       15.8276710438  MEMB      85              0.0000000000
     10553        85  DOPC      C34            28.3600342299      -29.4281365125       13.9076184163  MEMB      85              0.0000000000
     10554        85  DOPC      H4X            27.8100633114      -28.6168637299       13.3847585862  MEMB      85              0.0000000000
     10555        85  DOPC      H4Y            27.6365923807      -30.2543269562       14.0921912979  MEMB      85              0.0000000000
     10556        85  DOPC      C35            29.4579658629      -29.9487655845       13.0128345206  MEMB      85              0.0000000000
     10557        85  DOPC      H5X            29.8484794640      -30.9444872432       13.3224172259  MEMB      85              0.0000000000
     10558        85  DOPC      H5Y            30.3315677915      -29.2617251312       12.9978857162  MEMB      85              0.0000000000
     10559        85  DOPC      C36            28.8128757246      -30.0424626120       11.6680440089  MEMB      85              0.0000000000
     10560        85  DOPC      H6X            28.1212105039      -29.1911329284       11.4957347752  MEMB      85              0.0000000000
     10561        85  DOPC      H6Y            29.6162563604      -29.9969898336       10.9017917962  MEMB      85              0.0000000000
     10562        85  DOPC      C37            28.0601907793      -31.3448642976       11.4804812698  MEMB      85              0.0000000000
     10563        85  DOPC      H7X            28.6080046680      -32.0775218431       12.1060090391  MEMB      85              0.0000000000
     10564        85  DOPC      H7Y            27.0086285590      -31.3414653473       11.8474228430  MEMB      85              0.0000000000
     10565        85  DOPC      C38            28.2073926099      -31.6693325360        9.9877980258  MEMB      85              0.0000000000
     10566        85  DOPC      H8X            27.8526453415      -32.6738356158        9.7348453015  MEMB      85              0.0000000000
     10567        85  DOPC      H8Y            29.2875074963      -31.7109497935        9.8233010515  MEMB      85              0.0000000000
     10568        85  DOPC      C39            27.4437234589      -30.6043801006        9.2323080542  MEMB      85              0.0000000000
     10569        85  DOPC      H9X            26.3794460656      -30.8578370884        9.2811341329  MEMB      85              0.0000000000
     10570        85  DOPC      C310           27.7596601866      -29.4773174523        8.5344600683  MEMB      85              0.0000000000
     10571        85  DOPC      H10X           26.9135067827      -28.8569434166        8.2160068165  MEMB      85              0.0000000000
     10572        85  DOPC      C311           28.9642631682      -28.6372084851        8.2381934465  MEMB      85              0.0000000000
     10573        85  DOPC      H11X           29.9449946418      -29.0807441733        8.4963419630  MEMB      85              0.0000000000
     10574        85  DOPC      H11Y           28.8284011593      -27.8061210425        8.9303653232  MEMB      85              0.0000000000
     10575        85  DOPC      C312           28.8684362165      -28.0042727160        6.8022118908  MEMB      85              0.0000000000
     10576        85  DOPC      H12X           28.6030136955      -28.7644664981        6.0422444119  MEMB      85              0.0000000000
     10577        85  DOPC      H12Y           29.7843462815      -27.5680935834        6.3966474394  MEMB      85              0.0000000000
     10578        85  DOPC      C313           28.0503220309      -26.7120982595        6.7699654021  MEMB      85              0.0000000000
     10579        85  DOPC      H13X           27.5180404740      -26.6114074520        7.7247323774  MEMB      85              0.0000000000
     10580        85  DOPC      H13Y           28.6145882784      -25.7893847644        6.8216814117  MEMB      85              0.0000000000
     10581        85  DOPC      C314           27.3532908984      -26.3856412282        5.4585690051  MEMB      85              0.0000000000
     10582        85  DOPC      H14X           26.8955203804      -27.2954151863        5.0314733574  MEMB      85              0.0000000000
     10583        85  DOPC      H14Y           26.5312493073      -25.6639555054        5.6772513175  MEMB      85              0.0000000000
     10584        85  DOPC      C315           28.3488712396      -25.7343727882        4.4985534981  MEMB      85              0.0000000000
     10585        85  DOPC      H15X           28.9501695516      -26.5572788715        4.0598338384  MEMB      85              0.0000000000
     10586        85  DOPC      H15Y           29.0689479574      -25.0745778879        5.0294849128  MEMB      85              0.0000000000
     10587        85  DOPC      C316           27.6399900068      -24.8536335231        3.4761934863  MEMB      85              0.0000000000
     10588        85  DOPC      H16X           26.6780973332      -25.3132610519        3.2182332432  MEMB      85              0.0000000000
     10589        85  DOPC      H16Y           27.3442162639      -23.9061357581        3.9203958090  MEMB      85              0.0000000000
     10590        85  DOPC      C317           28.4405841744      -24.5837489107        2.2151381017  MEMB      85              0.0000000000
     10591        85  DOPC      H17X           28.8783724003      -23.5636558357        2.2096418050  MEMB      85              0.0000000000
     10592        85  DOPC      H17Y           29.3018008501      -25.2878865734        2.2341794424  MEMB      85              0.0000000000
     10593        85  DOPC      C318           27.5985748813      -24.8004660654        0.9591080578  MEMB      85              0.0000000000
     10594        85  DOPC      H18X           28.0885100836      -25.5484154727        0.2977273778  MEMB      85              0.0000000000
     10595        85  DOPC      H18Y           26.5936818636      -25.1937028424        1.2108519166  MEMB      85              0.0000000000
     10596        85  DOPC      H18Z           27.4724605185      -23.8448135283        0.4075233408  MEMB      85              0.0000000000
     10597        86  DOPC      N             -17.3653887572       36.9228056259       19.9310813620  MEMB      86              0.0000000000
     10598        86  DOPC      C12           -17.6523664928       37.5607901728       18.5675000162  MEMB      86              0.0000000000
     10599        86  DOPC      H12A          -17.8836687544       36.7645040824       17.8599870367  MEMB      86              0.0000000000
     10600        86  DOPC      H12B          -16.7668515937       38.0522818922       18.1956690414  MEMB      86              0.0000000000
     10601        86  DOPC      C13           -15.9318831963       36.5258060463       20.0543160270  MEMB      86              0.0000000000
     10602        86  DOPC      H13A          -15.7493257838       36.0891490629       21.0309256486  MEMB      86              0.0000000000
     10603        86  DOPC      H13B          -15.6548288335       35.8056012377       19.2915126657  MEMB      86              0.0000000000
     10604        86  DOPC      H13C          -15.2780224686       37.3891063447       19.9468971453  MEMB      86              0.0000000000
     10605        86  DOPC      C14           -18.2809676901       35.7492387209       20.0957293253  MEMB      86              0.0000000000
     10606        86  DOPC      H14A          -18.1781916424       35.0578109500       19.2643462028  MEMB      86              0.0000000000
     10607        86  DOPC      H14B          -18.1761646895       35.2573148214       21.0475906622  MEMB      86              0.0000000000
     10608        86  DOPC      H14C          -19.3151080283       36.1075706892       19.9993168239  MEMB      86              0.0000000000
     10609        86  DOPC      C15           -17.6185965714       37.9063269448       21.0200835660  MEMB      86              0.0000000000
     10610        86  DOPC      H15A          -16.9834553481       38.7713430831       20.8855403114  MEMB      86              0.0000000000
     10611        86  DOPC      H15B          -17.4171966595       37.4925064828       22.0016262739  MEMB      86              0.0000000000
     10612        86  DOPC      H15C          -18.6503843990       38.2425495767       20.9447622808  MEMB      86              0.0000000000
     10613        86  DOPC      C11           -18.8270878271       38.5765561798       18.4534283329  MEMB      86              0.0000000000
     10614        86  DOPC      H11A          -18.5471590374       39.5093991599       18.9843261429  MEMB      86              0.0000000000
     10615        86  DOPC      H11B          -18.9469936109       38.8668365918       17.3772053541  MEMB      86              0.0000000000
     10616        86  DOPC      P             -20.9493752244       37.1461598571       18.1020730361  MEMB      86              0.0000000000
     10617        86  DOPC      O13           -21.4152429295       37.9353336704       16.9429505730  MEMB      86              0.0000000000
     10618        86  DOPC      O14           -21.9316569583       36.4447263616       18.9626023020  MEMB      86              0.0000000000
     10619        86  DOPC      O12           -20.0466238838       38.0803877435       19.0145257698  MEMB      86              0.0000000000
     10620        86  DOPC      O11           -19.8745281298       36.0595457288       17.6332539779  MEMB      86              0.0000000000
     10621        86  DOPC      C1            -20.3266190667       34.7212175287       17.3721950488  MEMB      86              0.0000000000
     10622        86  DOPC      HA            -21.4288548770       34.5821570864       17.4723956357  MEMB      86              0.0000000000
     10623        86  DOPC      HB            -19.8388883283       34.0552169725       18.1104150628  MEMB      86              0.0000000000
     10624        86  DOPC      C2            -19.9820075928       34.1802151713       15.9553053633  MEMB      86              0.0000000000
     10625        86  DOPC      HS            -20.1859944433       33.0777780355       15.9470645708  MEMB      86              0.0000000000
     10626        86  DOPC      O21           -18.6565568415       34.4786251181       15.5433554715  MEMB      86              0.0000000000
     10627        86  DOPC      C21           -17.7994073256       33.6741524798       16.0154123524  MEMB      86              0.0000000000
     10628        86  DOPC      O22           -17.9729240600       32.8792826697       16.9296820143  MEMB      86              0.0000000000
     10629        86  DOPC      C22           -16.5866251278       33.7400632410       15.1011029190  MEMB      86              0.0000000000
     10630        86  DOPC      H2R           -16.0758535482       32.7566847331       15.1864915874  MEMB      86              0.0000000000
     10631        86  DOPC      H2S           -15.9441494074       34.5473064857       15.4784127914  MEMB      86              0.0000000000
     10632        86  DOPC      C3            -20.8086820849       34.7478091886       14.8185956639  MEMB      86              0.0000000000
     10633        86  DOPC      HX            -21.8744113529       34.5141553255       14.9632397786  MEMB      86              0.0000000000
     10634        86  DOPC      HY            -20.4423406310       34.1877883498       13.9134096586  MEMB      86              0.0000000000
     10635        86  DOPC      O31           -20.5808556266       36.1684396780       14.7137590971  MEMB      86              0.0000000000
     10636        86  DOPC      C31           -20.9560119625       36.5644456174       13.5222477924  MEMB      86              0.0000000000
     10637        86  DOPC      O32           -21.4604542865       35.8169775345       12.6968364350  MEMB      86              0.0000000000
     10638        86  DOPC      C32           -20.6259339850       38.0335724794       13.2978353868  MEMB      86              0.0000000000
     10639        86  DOPC      H2X           -20.1511791561       38.4467789121       14.2107427166  MEMB      86              0.0000000000
     10640        86  DOPC      H2Y           -19.9043662513       38.0746054246       12.4569851076  MEMB      86              0.0000000000
     10641        86  DOPC      C23           -16.9182479446       34.0447412668       13.6151861473  MEMB      86              0.0000000000
     10642        86  DOPC      H3R           -17.9071453891       33.5921820726       13.3852989498  MEMB      86              0.0000000000
     10643        86  DOPC      H3S           -16.1474151197       33.5553258624       12.9770590546  MEMB      86              0.0000000000
     10644        86  DOPC      C24           -17.0180232407       35.5267870985       13.2383383224  MEMB      86              0.0000000000
     10645        86  DOPC      H4R           -16.6549827586       36.1615967177       14.0727686958  MEMB      86              0.0000000000
     10646        86  DOPC      H4S           -18.1072412147       35.7299897704       13.1235357639  MEMB      86              0.0000000000
     10647        86  DOPC      C25           -16.2996598855       35.9128167460       11.9306806971  MEMB      86              0.0000000000
     10648        86  DOPC      H5R           -16.0753436531       35.0080836052       11.3251207009  MEMB      86              0.0000000000
     10649        86  DOPC      H5S           -15.3168193016       36.3692254746       12.1872661520  MEMB      86              0.0000000000
     10650        86  DOPC      C26           -17.1168439590       36.8869297361       11.0635941768  MEMB      86              0.0000000000
     10651        86  DOPC      H6R           -16.5518560242       37.8389308086       10.9508444353  MEMB      86              0.0000000000
     10652        86  DOPC      H6S           -18.0637146809       37.1505897419       11.5817887774  MEMB      86              0.0000000000
     10653        86  DOPC      C27           -17.4681892751       36.3610602583        9.6561233480  MEMB      86              0.0000000000
     10654        86  DOPC      H7R           -16.5287197393       36.2358138814        9.0736726928  MEMB      86              0.0000000000
     10655        86  DOPC      H7S           -18.0566012196       37.1557094444        9.1458988324  MEMB      86              0.0000000000
     10656        86  DOPC      C28           -18.2539569862       35.0286811046        9.6053894832  MEMB      86              0.0000000000
     10657        86  DOPC      H8R           -17.6544620276       34.2277604907       10.0856439065  MEMB      86              0.0000000000
     10658        86  DOPC      H8S           -18.3625628465       34.7349339146        8.5365088039  MEMB      86              0.0000000000
     10659        86  DOPC      C29           -19.5966103880       35.1282976155       10.2830600413  MEMB      86              0.0000000000
     10660        86  DOPC      H9R           -19.5548252791       35.2278611663       11.3754594685  MEMB      86              0.0000000000
     10661        86  DOPC      C210          -20.8010856522       35.1416433232        9.6898122946  MEMB      86              0.0000000000
     10662        86  DOPC      H10R          -21.7006842894       35.3036542815       10.3018657441  MEMB      86              0.0000000000
     10663        86  DOPC      C211          -21.0369960965       35.0592860215        8.2115236154  MEMB      86              0.0000000000
     10664        86  DOPC      H11R          -22.1051206494       34.8586560613        7.9621687701  MEMB      86              0.0000000000
     10665        86  DOPC      H11S          -20.4277916412       34.2488018543        7.7828299187  MEMB      86              0.0000000000
     10666        86  DOPC      C212          -20.6597818433       36.4043169446        7.6154904017  MEMB      86              0.0000000000
     10667        86  DOPC      H12R          -19.6483058947       36.7298815301        7.9298307742  MEMB      86              0.0000000000
     10668        86  DOPC      H12S          -21.4020237203       37.1150481327        8.0371909353  MEMB      86              0.0000000000
     10669        86  DOPC      C213          -20.6671354021       36.4828655082        6.0962008813  MEMB      86              0.0000000000
     10670        86  DOPC      H13R          -21.1303004955       37.4462946617        5.7729708717  MEMB      86              0.0000000000
     10671        86  DOPC      H13S          -21.2860309478       35.6541561428        5.6939491957  MEMB      86              0.0000000000
     10672        86  DOPC      C214          -19.2463628799       36.4532334421        5.5249272462  MEMB      86              0.0000000000
     10673        86  DOPC      H14R          -18.6565408597       35.6527697371        6.0232902853  MEMB      86              0.0000000000
     10674        86  DOPC      H14S          -18.7372377217       37.4226931958        5.7153486641  MEMB      86              0.0000000000
     10675        86  DOPC      C215          -19.2220077182       36.1806230768        4.0372553856  MEMB      86              0.0000000000
     10676        86  DOPC      H15R          -19.0681120847       35.0898624525        3.9054678705  MEMB      86              0.0000000000
     10677        86  DOPC      H15S          -18.3702712142       36.6965084142        3.5408509701  MEMB      86              0.0000000000
     10678        86  DOPC      C216          -20.5112667723       36.5304054161        3.3178551552  MEMB      86              0.0000000000
     10679        86  DOPC      H16R          -20.7623643138       37.6079156335        3.3592634465  MEMB      86              0.0000000000
     10680        86  DOPC      H16S          -21.4071437537       36.0693383973        3.7762421912  MEMB      86              0.0000000000
     10681        86  DOPC      C217          -20.3837037440       35.9364988520        1.9302206740  MEMB      86              0.0000000000
     10682        86  DOPC      H17R          -19.6332801153       35.1159313462        1.9567247301  MEMB      86              0.0000000000
     10683        86  DOPC      H17S          -19.9780624626       36.6803772419        1.2182047776  MEMB      86              0.0000000000
     10684        86  DOPC      C218          -21.6944007006       35.2899683124        1.5406467717  MEMB      86              0.0000000000
     10685        86  DOPC      H18R          -21.6370400727       34.2053428271        1.7205048675  MEMB      86              0.0000000000
     10686        86  DOPC      H18S          -21.9917679677       35.5091691389        0.5015399500  MEMB      86              0.0000000000
     10687        86  DOPC      H18T          -22.5052010518       35.6975747922        2.1827406352  MEMB      86              0.0000000000
     10688        86  DOPC      C33           -21.8944695256       38.8382685035       12.9494446767  MEMB      86              0.0000000000
     10689        86  DOPC      H3X           -22.5567343424       38.8468430956       13.8462779583  MEMB      86              0.0000000000
     10690        86  DOPC      H3Y           -22.4435458186       38.3388588108       12.1208760635  MEMB      86              0.0000000000
     10691        86  DOPC      C34           -21.6252877153       40.2936362582       12.5508992831  MEMB      86              0.0000000000
     10692        86  DOPC      H4X           -21.1814558171       40.8109583119       13.4310935743  MEMB      86              0.0000000000
     10693        86  DOPC      H4Y           -22.5881514389       40.7989954220       12.3294430783  MEMB      86              0.0000000000
     10694        86  DOPC      C35           -20.6900814861       40.4811513831       11.3542027848  MEMB      86              0.0000000000
     10695        86  DOPC      H5X           -19.6671670919       40.1482742589       11.6436535867  MEMB      86              0.0000000000
     10696        86  DOPC      H5Y           -20.6399330907       41.5728367253       11.1244638391  MEMB      86              0.0000000000
     10697        86  DOPC      C36           -21.0751877413       39.7609548287       10.0563516932  MEMB      86              0.0000000000
     10698        86  DOPC      H6X           -21.2670991188       38.6784020784       10.2216589290  MEMB      86              0.0000000000
     10699        86  DOPC      H6Y           -21.9990918784       40.2133068775        9.6385357713  MEMB      86              0.0000000000
     10700        86  DOPC      C37           -19.9300093388       39.9049675258        9.0568337718  MEMB      86              0.0000000000
     10701        86  DOPC      H7X           -19.4962987279       40.9188293945        9.1352119262  MEMB      86              0.0000000000
     10702        86  DOPC      H7Y           -19.1225546578       39.1811096290        9.3144008548  MEMB      86              0.0000000000
     10703        86  DOPC      C38           -20.3069230409       39.7482176941        7.5894749009  MEMB      86              0.0000000000
     10704        86  DOPC      H8X           -20.8144393997       38.8083918820        7.4011633289  MEMB      86              0.0000000000
     10705        86  DOPC      H8Y           -19.3100950192       39.6593536378        7.1035552688  MEMB      86              0.0000000000
     10706        86  DOPC      C39           -21.1840984435       40.8230179422        7.0086353902  MEMB      86              0.0000000000
     10707        86  DOPC      H9X           -22.2235935222       40.8446237148        7.3687429692  MEMB      86              0.0000000000
     10708        86  DOPC      C310          -20.7781757044       41.6640566214        6.0515263934  MEMB      86              0.0000000000
     10709        86  DOPC      H10X          -21.4680393427       42.4130514068        5.6310899973  MEMB      86              0.0000000000
     10710        86  DOPC      C311          -19.3902998817       41.5974592788        5.4754784060  MEMB      86              0.0000000000
     10711        86  DOPC      H11X          -18.6226768911       41.6529774713        6.2811497199  MEMB      86              0.0000000000
     10712        86  DOPC      H11Y          -19.2045315392       42.4534052516        4.7971322572  MEMB      86              0.0000000000
     10713        86  DOPC      C312          -19.1631375817       40.3429711381        4.6362435275  MEMB      86              0.0000000000
     10714        86  DOPC      H12X          -19.3338056971       39.3997472725        5.1865994845  MEMB      86              0.0000000000
     10715        86  DOPC      H12Y          -18.0920775770       40.3323428631        4.3423224448  MEMB      86              0.0000000000
     10716        86  DOPC      C313          -20.0967125190       40.3249117777        3.4329535322  MEMB      86              0.0000000000
     10717        86  DOPC      H13X          -21.0848443223       39.9082794738        3.7364015737  MEMB      86              0.0000000000
     10718        86  DOPC      H13Y          -20.2631562631       41.3643072498        3.0707349795  MEMB      86              0.0000000000
     10719        86  DOPC      C314          -19.4851804602       39.5230023386        2.3074752738  MEMB      86              0.0000000000
     10720        86  DOPC      H14X          -19.2008222291       38.5101465109        2.6426165929  MEMB      86              0.0000000000
     10721        86  DOPC      H14Y          -20.2386407529       39.4087146695        1.4993373334  MEMB      86              0.0000000000
     10722        86  DOPC      C315          -18.1723049204       40.1172198556        1.8206831478  MEMB      86              0.0000000000
     10723        86  DOPC      H15X          -17.3441727436       39.6555399583        2.4114575279  MEMB      86              0.0000000000
     10724        86  DOPC      H15Y          -18.1368751184       41.2122166072        1.9885061289  MEMB      86              0.0000000000
     10725        86  DOPC      C316          -17.9976713656       39.7715924791        0.3616952312  MEMB      86              0.0000000000
     10726        86  DOPC      H16X          -16.9552300816       39.9843521626        0.0419409446  MEMB      86              0.0000000000
     10727        86  DOPC      H16Y          -18.1659225226       38.6674367754        0.3100251867  MEMB      86              0.0000000000
     10728        86  DOPC      C317          -18.9786838684       40.5013709514       -0.5716903190  MEMB      86              0.0000000000
     10729        86  DOPC      H17X          -18.7350676263       40.2603053109       -1.6295351972  MEMB      86              0.0000000000
     10730        86  DOPC      H17Y          -20.0190789791       40.1432761977       -0.4048139874  MEMB      86              0.0000000000
     10731        86  DOPC      C318          -18.9484547082       42.0130381092       -0.4622461417  MEMB      86              0.0000000000
     10732        86  DOPC      H18X          -17.9151116123       42.3880338382       -0.6253927020  MEMB      86              0.0000000000
     10733        86  DOPC      H18Y          -19.6140891906       42.4146617744       -1.2453585264  MEMB      86              0.0000000000
     10734        86  DOPC      H18Z          -19.3232974332       42.3694025569        0.5188767018  MEMB      86              0.0000000000
     10735        87  DOPE      N              38.4670491125       21.7294326707       18.0063287336  MEMB      87              0.0000000000
     10736        87  DOPE      HN1            39.1517063974       21.2632264652       18.6473105381  MEMB      87              0.0000000000
     10737        87  DOPE      HN2            37.9217974046       20.9428473450       17.5954879940  MEMB      87              0.0000000000
     10738        87  DOPE      HN3            38.9271863912       22.3032083993       17.2699276966  MEMB      87              0.0000000000
     10739        87  DOPE      C12            37.5357753767       22.4741924731       18.9124609614  MEMB      87              0.0000000000
     10740        87  DOPE      H12A           36.5072019912       22.3433148727       18.5190195069  MEMB      87              0.0000000000
     10741        87  DOPE      H12B           37.7800430238       23.5517748704       18.8909910457  MEMB      87              0.0000000000
     10742        87  DOPE      C11            37.7094539206       21.8795674089       20.3209157919  MEMB      87              0.0000000000
     10743        87  DOPE      H11A           36.9734998296       22.3234546574       21.0329244829  MEMB      87              0.0000000000
     10744        87  DOPE      H11B           38.7143317934       22.1688555284       20.7014085533  MEMB      87              0.0000000000
     10745        87  DOPE      P              36.2422459760       19.7518561258       20.2938920846  MEMB      87              0.0000000000
     10746        87  DOPE      O13            35.3907870622       20.5460507243       19.3885456423  MEMB      87              0.0000000000
     10747        87  DOPE      O14            35.7612963732       19.5842545462       21.6814506086  MEMB      87              0.0000000000
     10748        87  DOPE      O11            36.5525702799       18.4177136868       19.5810102867  MEMB      87              0.0000000000
     10749        87  DOPE      O12            37.6558871358       20.4476169602       20.3016240363  MEMB      87              0.0000000000
     10750        87  DOPE      C1             37.0906831828       17.2196492990       20.0750029883  MEMB      87              0.0000000000
     10751        87  DOPE      HA             36.3032610906       16.6225003553       20.5865118737  MEMB      87              0.0000000000
     10752        87  DOPE      HB             37.8821267317       17.4269269638       20.8297211420  MEMB      87              0.0000000000
     10753        87  DOPE      C2             37.7085666262       16.3722724980       18.9175472205  MEMB      87              0.0000000000
     10754        87  DOPE      HS             38.7127248167       16.0875617634       19.2275096284  MEMB      87              0.0000000000
     10755        87  DOPE      O21            37.7610005404       17.0327374189       17.6214137509  MEMB      87              0.0000000000
     10756        87  DOPE      C21            38.4293651026       18.1670469756       17.4804000668  MEMB      87              0.0000000000
     10757        87  DOPE      O22            38.9408711675       18.8637718027       18.3334897083  MEMB      87              0.0000000000
     10758        87  DOPE      C22            38.6129445868       18.5046758083       15.9957522847  MEMB      87              0.0000000000
     10759        87  DOPE      H2R            37.6649023006       18.9524843986       15.6446072222  MEMB      87              0.0000000000
     10760        87  DOPE      H2S            38.7831141192       17.5347623559       15.4772548682  MEMB      87              0.0000000000
     10761        87  DOPE      C3             36.9697241075       14.9969914454       18.7380480506  MEMB      87              0.0000000000
     10762        87  DOPE      HX             36.5723807383       14.6994513629       19.7196085032  MEMB      87              0.0000000000
     10763        87  DOPE      HY             37.7063267177       14.2001344711       18.4721300381  MEMB      87              0.0000000000
     10764        87  DOPE      O31            35.8566644027       15.0540736008       17.8372929029  MEMB      87              0.0000000000
     10765        87  DOPE      C31            36.2366366643       14.9548101990       16.5707991943  MEMB      87              0.0000000000
     10766        87  DOPE      O32            37.3286007639       14.5874459615       16.1692924384  MEMB      87              0.0000000000
     10767        87  DOPE      C32            35.1075895090       15.4838518130       15.7222123221  MEMB      87              0.0000000000
     10768        87  DOPE      H2X            34.1838254920       14.9118681465       15.7633229689  MEMB      87              0.0000000000
     10769        87  DOPE      H2Y            34.6541233793       16.2875168857       16.2357777375  MEMB      87              0.0000000000
     10770        87  DOPE      C23            39.7913692904       19.4779137173       15.6705820733  MEMB      87              0.0000000000
     10771        87  DOPE      H3R            40.7419432600       18.9664366438       15.9349210923  MEMB      87              0.0000000000
     10772        87  DOPE      H3S            39.7528959220       20.3815338821       16.3026616008  MEMB      87              0.0000000000
     10773        87  DOPE      C24            39.8436043611       19.9535400099       14.1946128588  MEMB      87              0.0000000000
     10774        87  DOPE      H4R            40.8249683103       20.4331576169       13.9777395443  MEMB      87              0.0000000000
     10775        87  DOPE      H4S            39.0737101710       20.7351082579       14.0316408466  MEMB      87              0.0000000000
     10776        87  DOPE      C25            39.5899735465       18.8004953033       13.2062417023  MEMB      87              0.0000000000
     10777        87  DOPE      H5R            38.6651870889       18.2699093040       13.4529897935  MEMB      87              0.0000000000
     10778        87  DOPE      H5S            40.3337219691       18.0368554684       13.3755888173  MEMB      87              0.0000000000
     10779        87  DOPE      C26            39.5433015567       19.0794618874       11.6972228554  MEMB      87              0.0000000000
     10780        87  DOPE      H6R            40.2954774926       19.8284419961       11.3793724741  MEMB      87              0.0000000000
     10781        87  DOPE      H6S            38.5626850047       19.5182985360       11.4599805129  MEMB      87              0.0000000000
     10782        87  DOPE      C27            39.6923248299       17.7749798114       10.8857139082  MEMB      87              0.0000000000
     10783        87  DOPE      H7R            38.7057007840       17.5155173428       10.4463760785  MEMB      87              0.0000000000
     10784        87  DOPE      H7S            39.9171158685       16.9360028154       11.5812885632  MEMB      87              0.0000000000
     10785        87  DOPE      C28            40.7899003636       17.8138082206        9.8003353360  MEMB      87              0.0000000000
     10786        87  DOPE      H8R            40.9374784787       16.7784303025        9.4152000945  MEMB      87              0.0000000000
     10787        87  DOPE      H8S            41.7666339923       18.1111197851       10.2331022156  MEMB      87              0.0000000000
     10788        87  DOPE      C29            40.4361981261       18.7499056600        8.6808088737  MEMB      87              0.0000000000
     10789        87  DOPE      H9R            40.8075357148       19.7805891856        8.7749589269  MEMB      87              0.0000000000
     10790        87  DOPE      C210           39.5577098249       18.4633784827        7.7140407006  MEMB      87              0.0000000000
     10791        87  DOPE      H10R           39.2569154319       19.2321999612        6.9852396294  MEMB      87              0.0000000000
     10792        87  DOPE      C211           38.8019962634       17.1747320669        7.6234440193  MEMB      87              0.0000000000
     10793        87  DOPE      H11R           39.1493164482       16.4297650684        8.3636546619  MEMB      87              0.0000000000
     10794        87  DOPE      H11S           38.9311704691       16.7096052562        6.6268560279  MEMB      87              0.0000000000
     10795        87  DOPE      C212           37.3389684085       17.5428758162        7.8727092453  MEMB      87              0.0000000000
     10796        87  DOPE      H12R           37.2240355363       18.4594314971        8.5063298291  MEMB      87              0.0000000000
     10797        87  DOPE      H12S           36.7707894350       16.7911567801        8.4242416272  MEMB      87              0.0000000000
     10798        87  DOPE      C213           36.5952605010       17.7369699006        6.5676578471  MEMB      87              0.0000000000
     10799        87  DOPE      H13R           36.9631244982       18.6803716177        6.1448337018  MEMB      87              0.0000000000
     10800        87  DOPE      H13S           35.5405347840       17.8543174736        6.7768466757  MEMB      87              0.0000000000
     10801        87  DOPE      C214           36.5370542265       16.6369734836        5.5171007717  MEMB      87              0.0000000000
     10802        87  DOPE      H14R           36.0084536771       15.7267081015        5.8690118832  MEMB      87              0.0000000000
     10803        87  DOPE      H14S           37.5531145277       16.3379714014        5.1903732368  MEMB      87              0.0000000000
     10804        87  DOPE      C215           35.7860097667       17.2382793877        4.3326680439  MEMB      87              0.0000000000
     10805        87  DOPE      H15R           35.9539645304       18.3416522196        4.3087716591  MEMB      87              0.0000000000
     10806        87  DOPE      H15S           34.6891747378       17.0620931012        4.3980556358  MEMB      87              0.0000000000
     10807        87  DOPE      C216           36.3176003371       16.7587375259        3.0277117818  MEMB      87              0.0000000000
     10808        87  DOPE      H16R           37.3648621732       16.3973181046        3.1324155817  MEMB      87              0.0000000000
     10809        87  DOPE      H16S           36.3579802384       17.5991792987        2.3136881455  MEMB      87              0.0000000000
     10810        87  DOPE      C217           35.3906304520       15.7009764473        2.5140264741  MEMB      87              0.0000000000
     10811        87  DOPE      H17R           35.9144541633       15.3976426970        1.6304377651  MEMB      87              0.0000000000
     10812        87  DOPE      H17S           34.4084609763       16.1103727340        2.2080433164  MEMB      87              0.0000000000
     10813        87  DOPE      C218           35.2558374555       14.4892364036        3.4119977850  MEMB      87              0.0000000000
     10814        87  DOPE      H18R           34.5947289981       14.7267090009        4.2669921062  MEMB      87              0.0000000000
     10815        87  DOPE      H18S           36.2576421200       14.1874432578        3.7915884795  MEMB      87              0.0000000000
     10816        87  DOPE      H18T           34.8231510871       13.6523166481        2.8353922682  MEMB      87              0.0000000000
     10817        87  DOPE      C33            35.4003949801       15.9489046655       14.2959834545  MEMB      87              0.0000000000
     10818        87  DOPE      H3X            34.6091307059       16.6818023177       14.2333785631  MEMB      87              0.0000000000
     10819        87  DOPE      H3Y            35.0887726356       15.1657535729       13.5958518544  MEMB      87              0.0000000000
     10820        87  DOPE      C34            36.5439016821       16.9199135633       13.9549164282  MEMB      87              0.0000000000
     10821        87  DOPE      H4X            36.7013118416       17.4285969639       14.9148632191  MEMB      87              0.0000000000
     10822        87  DOPE      H4Y            37.4741168580       16.3871435959       13.6655750900  MEMB      87              0.0000000000
     10823        87  DOPE      C35            36.1801285590       17.9942504601       12.8793945651  MEMB      87              0.0000000000
     10824        87  DOPE      H5X            35.1343314348       17.8304750442       12.5701749339  MEMB      87              0.0000000000
     10825        87  DOPE      H5Y            36.7953419227       17.7735093368       11.9810622717  MEMB      87              0.0000000000
     10826        87  DOPE      C36            36.3360172873       19.5072882329       13.2483238909  MEMB      87              0.0000000000
     10827        87  DOPE      H6X            37.3136729958       19.6628979411       13.7100187000  MEMB      87              0.0000000000
     10828        87  DOPE      H6Y            35.6363875403       19.8521697103       14.0296571652  MEMB      87              0.0000000000
     10829        87  DOPE      C37            36.2386084835       20.4677276969       12.0366883313  MEMB      87              0.0000000000
     10830        87  DOPE      H7X            36.5306594654       19.8822139991       11.1384902303  MEMB      87              0.0000000000
     10831        87  DOPE      H7Y            35.1790258040       20.7655245409       11.9035962918  MEMB      87              0.0000000000
     10832        87  DOPE      C38            37.1373142704       21.7372739016       12.0759326814  MEMB      87              0.0000000000
     10833        87  DOPE      H8X            38.2108824046       21.4639124676       12.1256929417  MEMB      87              0.0000000000
     10834        87  DOPE      H8Y            36.9278867809       22.3155777959       13.0042572839  MEMB      87              0.0000000000
     10835        87  DOPE      C39            36.8930074683       22.6348348880       10.8858312577  MEMB      87              0.0000000000
     10836        87  DOPE      H9X            36.2193343032       23.4752918317       11.1163463142  MEMB      87              0.0000000000
     10837        87  DOPE      C310           37.4303861065       22.5793053279        9.6477973057  MEMB      87              0.0000000000
     10838        87  DOPE      H10X           37.0834980608       23.3132927319        8.9106738404  MEMB      87              0.0000000000
     10839        87  DOPE      C311           38.4338014759       21.6055314532        9.0876085722  MEMB      87              0.0000000000
     10840        87  DOPE      H11X           39.1835342181       21.3218190427        9.8584651658  MEMB      87              0.0000000000
     10841        87  DOPE      H11Y           37.9105873659       20.6749410919        8.7740978249  MEMB      87              0.0000000000
     10842        87  DOPE      C312           39.1925180485       22.1528613107        7.8513545832  MEMB      87              0.0000000000
     10843        87  DOPE      H12X           39.8920892664       21.3650999339        7.4996647346  MEMB      87              0.0000000000
     10844        87  DOPE      H12Y           39.8168175236       23.0278194642        8.1382949158  MEMB      87              0.0000000000
     10845        87  DOPE      C313           38.2689354827       22.5499658610        6.6841094349  MEMB      87              0.0000000000
     10846        87  DOPE      H13X           37.3883605734       21.8755638014        6.6526690549  MEMB      87              0.0000000000
     10847        87  DOPE      H13Y           37.8787713577       23.5620401671        6.9004728507  MEMB      87              0.0000000000
     10848        87  DOPE      C314           38.9414449496       22.6230593831        5.3025747278  MEMB      87              0.0000000000
     10849        87  DOPE      H14X           39.8472691708       23.2375602729        5.3609562649  MEMB      87              0.0000000000
     10850        87  DOPE      H14Y           38.2490303637       23.1087031884        4.5812669913  MEMB      87              0.0000000000
     10851        87  DOPE      C315           39.4114500292       21.3027324580        4.7178873388  MEMB      87              0.0000000000
     10852        87  DOPE      H15X           40.1193140366       20.8126575003        5.4236403824  MEMB      87              0.0000000000
     10853        87  DOPE      H15Y           39.9654005933       21.4879210564        3.7703499487  MEMB      87              0.0000000000
     10854        87  DOPE      C316           38.2286889256       20.3955078562        4.4449948845  MEMB      87              0.0000000000
     10855        87  DOPE      H16X           37.5282221377       20.8539080808        3.7179692355  MEMB      87              0.0000000000
     10856        87  DOPE      H16Y           37.6892939963       20.2831267978        5.4038135977  MEMB      87              0.0000000000
     10857        87  DOPE      C317           38.6823694097       19.0370234019        3.9512431831  MEMB      87              0.0000000000
     10858        87  DOPE      H17X           39.6401119397       18.7933983812        4.4300347736  MEMB      87              0.0000000000
     10859        87  DOPE      H17Y           38.0344900063       18.2616672005        4.3639127158  MEMB      87              0.0000000000
     10860        87  DOPE      C318           38.6778270640       18.9123223277        2.4309050101  MEMB      87              0.0000000000
     10861        87  DOPE      H18X           38.9447933584       17.8823748289        2.1152248110  MEMB      87              0.0000000000
     10862        87  DOPE      H18Y           37.6665814618       19.1323714889        2.0515671798  MEMB      87              0.0000000000
     10863        87  DOPE      H18Z           39.3473803906       19.6379550238        1.9451838841  MEMB      87              0.0000000000
     10864        88  23SM      N             -25.9543488937       32.7125004759       27.9333078775  MEMB      88              0.0000000000
     10865        88  23SM      C15           -24.8516789179       31.7084813874       27.7321967727  MEMB      88              0.0000000000
     10866        88  23SM      H15A          -24.7100439656       31.5291646150       26.6631147411  MEMB      88              0.0000000000
     10867        88  23SM      H15B          -25.0995258358       30.7552233555       28.1818685580  MEMB      88              0.0000000000
     10868        88  23SM      H15C          -23.9209598822       32.0569739333       28.1664847339  MEMB      88              0.0000000000
     10869        88  23SM      C14           -27.2431001208       32.1637120062       27.3917793819  MEMB      88              0.0000000000
     10870        88  23SM      H14A          -27.1480675063       32.0592024881       26.3074137002  MEMB      88              0.0000000000
     10871        88  23SM      H14B          -28.0754616971       32.8308482597       27.5788242436  MEMB      88              0.0000000000
     10872        88  23SM      H14C          -27.4690006287       31.1799167336       27.7811686700  MEMB      88              0.0000000000
     10873        88  23SM      C13           -26.0881167886       32.9371465202       29.4049478352  MEMB      88              0.0000000000
     10874        88  23SM      H13A          -26.4798790127       32.0403105880       29.8750009214  MEMB      88              0.0000000000
     10875        88  23SM      H13B          -26.7660713470       33.7479940335       29.6450716101  MEMB      88              0.0000000000
     10876        88  23SM      H13C          -25.1147934900       33.1296395978       29.8338720661  MEMB      88              0.0000000000
     10877        88  23SM      C12           -25.6169117663       33.9960531590       27.1884182802  MEMB      88              0.0000000000
     10878        88  23SM      H12A          -24.7723113825       34.4894336108       27.6605921693  MEMB      88              0.0000000000
     10879        88  23SM      H12B          -26.4535797717       34.6808420181       27.2406688528  MEMB      88              0.0000000000
     10880        88  23SM      C11           -25.2576066858       33.8710376876       25.6840375844  MEMB      88              0.0000000000
     10881        88  23SM      H11A          -24.3111531916       33.2801842372       25.5888239016  MEMB      88              0.0000000000
     10882        88  23SM      H11B          -25.0249119337       34.8926182324       25.3138485975  MEMB      88              0.0000000000
     10883        88  23SM      P             -26.1017227103       32.2095224671       23.8522930732  MEMB      88              0.0000000000
     10884        88  23SM      O13           -25.5998697135       31.0346104660       24.6008319094  MEMB      88              0.0000000000
     10885        88  23SM      O14           -27.2936405331       31.9916277735       22.9952162319  MEMB      88              0.0000000000
     10886        88  23SM      O11           -24.9726487706       32.8093218062       22.9089818762  MEMB      88              0.0000000000
     10887        88  23SM      O12           -26.3438312730       33.3639421529       24.9078360376  MEMB      88              0.0000000000
     10888        88  23SM      C1S           -25.0006152118       34.1905063801       22.5347398642  MEMB      88              0.0000000000
     10889        88  23SM      H1S           -24.0717574662       34.6590849524       22.9251041980  MEMB      88              0.0000000000
     10890        88  23SM      H1T           -25.8595372343       34.7543015023       22.9689444980  MEMB      88              0.0000000000
     10891        88  23SM      NF            -26.3378874756       34.2343468692       20.4397623293  MEMB      88              0.0000000000
     10892        88  23SM      HNF           -26.4833131906       33.4044410369       19.9107636172  MEMB      88              0.0000000000
     10893        88  23SM      C2S           -25.0037876875       34.3916924336       20.9925138448  MEMB      88              0.0000000000
     10894        88  23SM      H2S           -24.6767583559       35.4364555713       20.7895537768  MEMB      88              0.0000000000
     10895        88  23SM      C3S           -23.9915193445       33.4099542679       20.3207760290  MEMB      88              0.0000000000
     10896        88  23SM      H3S           -24.2931994506       32.3515266653       20.4785892800  MEMB      88              0.0000000000
     10897        88  23SM      O3            -22.6243836222       33.5435660120       20.7514666896  MEMB      88              0.0000000000
     10898        88  23SM      HO3           -22.5757911077       34.4369098995       21.1037124100  MEMB      88              0.0000000000
     10899        88  23SM      C4S           -23.9966091252       33.7059922805       18.8406834263  MEMB      88              0.0000000000
     10900        88  23SM      H4S           -23.7133144477       34.7455269140       18.6152993698  MEMB      88              0.0000000000
     10901        88  23SM      C5S           -24.2609047705       32.8643538521       17.8188529173  MEMB      88              0.0000000000
     10902        88  23SM      H5S           -24.4985381489       31.8111015012       18.0377338375  MEMB      88              0.0000000000
     10903        88  23SM      C6S           -24.2552446577       33.2409043356       16.3530602840  MEMB      88              0.0000000000
     10904        88  23SM      H6S           -25.1792709237       32.8440732153       15.8729900382  MEMB      88              0.0000000000
     10905        88  23SM      H6T           -23.3975340085       32.7657738501       15.8289494409  MEMB      88              0.0000000000
     10906        88  23SM      C7S           -24.2435246094       34.7434874508       16.0121540917  MEMB      88              0.0000000000
     10907        88  23SM      H7S           -23.3007299454       35.2283425290       16.3567082016  MEMB      88              0.0000000000
     10908        88  23SM      H7T           -25.0771454563       35.2541799981       16.5468365988  MEMB      88              0.0000000000
     10909        88  23SM      C8S           -24.4226483475       35.0000194722       14.5031290880  MEMB      88              0.0000000000
     10910        88  23SM      H8S           -25.4038737279       34.6035939089       14.1754316024  MEMB      88              0.0000000000
     10911        88  23SM      H8T           -23.6440292743       34.4929786553       13.8948655529  MEMB      88              0.0000000000
     10912        88  23SM      C9S           -24.3682522853       36.4935579494       14.2189878187  MEMB      88              0.0000000000
     10913        88  23SM      H9S           -23.3279794810       36.8519437201       14.3270754517  MEMB      88              0.0000000000
     10914        88  23SM      H9T           -24.9398921787       37.0183002160       15.0213471995  MEMB      88              0.0000000000
     10915        88  23SM      C10S          -24.9520735382       36.9326666808       12.8753734980  MEMB      88              0.0000000000
     10916        88  23SM      H10S          -24.7596126431       38.0098750449       12.8278520467  MEMB      88              0.0000000000
     10917        88  23SM      H10T          -26.0382356362       36.8110252576       12.8074170069  MEMB      88              0.0000000000
     10918        88  23SM      C11S          -24.4291612641       36.3837687704       11.5683801248  MEMB      88              0.0000000000
     10919        88  23SM      H11S          -24.8255548024       35.3679991100       11.3573044958  MEMB      88              0.0000000000
     10920        88  23SM      H11T          -23.3278524653       36.3392332818       11.5642222855  MEMB      88              0.0000000000
     10921        88  23SM      C12S          -24.8605181580       37.3785313869       10.4958055408  MEMB      88              0.0000000000
     10922        88  23SM      H12S          -24.4756092125       38.3890331844       10.7591613706  MEMB      88              0.0000000000
     10923        88  23SM      H12T          -25.9705742705       37.4434409579       10.4414840676  MEMB      88              0.0000000000
     10924        88  23SM      C13S          -24.2633405924       37.0099814810        9.1667039846  MEMB      88              0.0000000000
     10925        88  23SM      H13S          -24.6675829913       36.0229258758        8.8470845803  MEMB      88              0.0000000000
     10926        88  23SM      H13T          -23.1601320218       36.9177435961        9.2822211637  MEMB      88              0.0000000000
     10927        88  23SM      C14S          -24.5529397344       38.0523392176        8.1020958873  MEMB      88              0.0000000000
     10928        88  23SM      H14S          -24.2065444948       39.0606838832        8.4139590956  MEMB      88              0.0000000000
     10929        88  23SM      H14T          -25.6585984599       38.1071797451        7.9807905142  MEMB      88              0.0000000000
     10930        88  23SM      C15S          -23.8573707041       37.6180865867        6.8184862473  MEMB      88              0.0000000000
     10931        88  23SM      H15S          -23.4977833349       36.5721848727        6.9687896077  MEMB      88              0.0000000000
     10932        88  23SM      H15T          -22.9528620002       38.2420722592        6.6340312544  MEMB      88              0.0000000000
     10933        88  23SM      C16S          -24.8208450264       37.6059531334        5.6387908299  MEMB      88              0.0000000000
     10934        88  23SM      H16S          -24.5700449060       38.4612477840        4.9724720283  MEMB      88              0.0000000000
     10935        88  23SM      H16T          -25.8566066768       37.7791881429        6.0061907898  MEMB      88              0.0000000000
     10936        88  23SM      C17S          -24.8823218554       36.2793280605        4.8644345830  MEMB      88              0.0000000000
     10937        88  23SM      H17S          -25.6849363615       35.6398519361        5.2899722316  MEMB      88              0.0000000000
     10938        88  23SM      H17T          -23.9210212007       35.7161093707        4.9065254172  MEMB      88              0.0000000000
     10939        88  23SM      C18S          -25.1612615111       36.5699879066        3.4082622997  MEMB      88              0.0000000000
     10940        88  23SM      H18S          -25.1306673455       35.6963187373        2.7332605833  MEMB      88              0.0000000000
     10941        88  23SM      H18T          -24.3001190770       37.1806336306        3.1237334507  MEMB      88              0.0000000000
     10942        88  23SM      H18U          -26.1038987291       37.1473814650        3.2817855628  MEMB      88              0.0000000000
     10943        88  23SM      C1F           -27.3970782666       35.0003596142       20.6977010189  MEMB      88              0.0000000000
     10944        88  23SM      OF            -27.3590094285       35.9711775339       21.4592418029  MEMB      88              0.0000000000
     10945        88  23SM      C2F           -28.6779906842       34.5176398932       20.0636535128  MEMB      88              0.0000000000
     10946        88  23SM      H2F           -29.3680764030       34.2666180661       20.8909240031  MEMB      88              0.0000000000
     10947        88  23SM      H2G           -28.4778544092       33.5744138631       19.5102090449  MEMB      88              0.0000000000
     10948        88  23SM      C3F           -29.3524968836       35.5035847606       19.0770050687  MEMB      88              0.0000000000
     10949        88  23SM      H3F           -29.5133257674       36.4903029585       19.5628689753  MEMB      88              0.0000000000
     10950        88  23SM      H3G           -30.3457588389       35.0911895501       18.7700146776  MEMB      88              0.0000000000
     10951        88  23SM      C4F           -28.5783899144       35.7238843957       17.7731779934  MEMB      88              0.0000000000
     10952        88  23SM      H4F           -28.3964453135       34.7500008953       17.2615992889  MEMB      88              0.0000000000
     10953        88  23SM      H4G           -27.5862315847       36.1728310443       18.0030221462  MEMB      88              0.0000000000
     10954        88  23SM      C5F           -29.3440432868       36.6552128217       16.8200632857  MEMB      88              0.0000000000
     10955        88  23SM      H5F           -29.8435069353       37.4532050576       17.4122219377  MEMB      88              0.0000000000
     10956        88  23SM      H5G           -30.1286689882       36.0810418868       16.2767142865  MEMB      88              0.0000000000
     10957        88  23SM      C6F           -28.4167758700       37.3531874737       15.8292503929  MEMB      88              0.0000000000
     10958        88  23SM      H6F           -27.5620202833       37.7980483451       16.3920148751  MEMB      88              0.0000000000
     10959        88  23SM      H6G           -28.9422029723       38.1883727678       15.3149352853  MEMB      88              0.0000000000
     10960        88  23SM      C7F           -27.8584965816       36.4091031383       14.7680705242  MEMB      88              0.0000000000
     10961        88  23SM      H7F           -27.4745306106       35.4702624302       15.2177278746  MEMB      88              0.0000000000
     10962        88  23SM      H7G           -27.0024539175       36.9737100520       14.3786854869  MEMB      88              0.0000000000
     10963        88  23SM      C8F           -28.8542588179       36.1239280717       13.6377161570  MEMB      88              0.0000000000
     10964        88  23SM      H8F           -29.2330522188       37.0972219206       13.2524902554  MEMB      88              0.0000000000
     10965        88  23SM      H8G           -29.7164445046       35.5706495794       14.0797185152  MEMB      88              0.0000000000
     10966        88  23SM      C9F           -28.3245097164       35.3044758439       12.4435097480  MEMB      88              0.0000000000
     10967        88  23SM      H9F           -27.4643139276       35.7975597632       11.9588451022  MEMB      88              0.0000000000
     10968        88  23SM      H9G           -29.0893317517       35.2427547330       11.6412474056  MEMB      88              0.0000000000
     10969        88  23SM      C10F          -27.9824696502       33.8744239911       12.8447897356  MEMB      88              0.0000000000
     10970        88  23SM      H10F          -28.9180268235       33.3435107823       13.1329780089  MEMB      88              0.0000000000
     10971        88  23SM      H10G          -27.3268199422       33.8875027442       13.7392566097  MEMB      88              0.0000000000
     10972        88  23SM      C11F          -27.2802476223       33.0871872338       11.7455374248  MEMB      88              0.0000000000
     10973        88  23SM      H11F          -26.3378450506       33.6132928532       11.4678962055  MEMB      88              0.0000000000
     10974        88  23SM      H11G          -27.9138551677       33.0546941617       10.8341676628  MEMB      88              0.0000000000
     10975        88  23SM      C12F          -26.9729480945       31.6748677628       12.2496891914  MEMB      88              0.0000000000
     10976        88  23SM      H12F          -27.9072352918       31.1109733647       12.4521512113  MEMB      88              0.0000000000
     10977        88  23SM      H12G          -26.4214395622       31.7854754790       13.2132181372  MEMB      88              0.0000000000
     10978        88  23SM      C13F          -26.0768193836       30.8982887804       11.2974482631  MEMB      88              0.0000000000
     10979        88  23SM      H13F          -25.4163336628       30.2121441819       11.8770225159  MEMB      88              0.0000000000
     10980        88  23SM      H13G          -25.4230455305       31.6409488285       10.8244205875  MEMB      88              0.0000000000
     10981        88  23SM      C14F          -26.8025177040       30.0752245193       10.2299573862  MEMB      88              0.0000000000
     10982        88  23SM      H14F          -27.4122700508       29.3061882684       10.7471707183  MEMB      88              0.0000000000
     10983        88  23SM      H14G          -26.0215988457       29.5491396229        9.6313812212  MEMB      88              0.0000000000
     10984        88  23SM      C15F          -27.6973682127       30.8337403197        9.2412851904  MEMB      88              0.0000000000
     10985        88  23SM      H15F          -27.1118925387       31.6412636873        8.7499507745  MEMB      88              0.0000000000
     10986        88  23SM      H15G          -28.5609606931       31.2995509374        9.7613832858  MEMB      88              0.0000000000
     10987        88  23SM      C16F          -28.2135382942       29.8672715531        8.1714749154  MEMB      88              0.0000000000
     10988        88  23SM      H16F          -28.8964395510       29.1309191432        8.6503065387  MEMB      88              0.0000000000
     10989        88  23SM      H16G          -27.3455267838       29.2804653851        7.8099540233  MEMB      88              0.0000000000
     10990        88  23SM      C17F          -28.9499170883       30.5518916203        7.0104666894  MEMB      88              0.0000000000
     10991        88  23SM      H17F          -29.4594024796       31.4685437707        7.3733826965  MEMB      88              0.0000000000
     10992        88  23SM      H17G          -29.7436135957       29.8496125393        6.6589404156  MEMB      88              0.0000000000
     10993        88  23SM      C18F          -28.0614907105       30.8528122424        5.7914752292  MEMB      88              0.0000000000
     10994        88  23SM      H18F          -27.2704702084       31.5878720036        6.0513355163  MEMB      88              0.0000000000
     10995        88  23SM      H18G          -28.6929849833       31.2994878088        4.9893936372  MEMB      88              0.0000000000
     10996        88  23SM      C19F          -27.4436575884       29.5484190061        5.2854314378  MEMB      88              0.0000000000
     10997        88  23SM      H19F          -28.2484668475       28.7739458793        5.3030297202  MEMB      88              0.0000000000
     10998        88  23SM      H19G          -26.6240958096       29.2135260046        5.9574868340  MEMB      88              0.0000000000
     10999        88  23SM      C20F          -26.8765804694       29.5456561711        3.8800090217  MEMB      88              0.0000000000
     11000        88  23SM      H20F          -26.0187265599       30.2491127700        3.7769127113  MEMB      88              0.0000000000
     11001        88  23SM      H20G          -27.6611940011       29.8643185094        3.1561670404  MEMB      88              0.0000000000
     11002        88  23SM      C21F          -26.4451602656       28.1069903888        3.5650639618  MEMB      88              0.0000000000
     11003        88  23SM      H21F          -27.1906100000       27.3734936721        3.9396906595  MEMB      88              0.0000000000
     11004        88  23SM      H21G          -25.4691779203       27.8988311700        4.0628269976  MEMB      88              0.0000000000
     11005        88  23SM      C22F          -26.3306277641       27.9515544992        2.0680394265  MEMB      88              0.0000000000
     11006        88  23SM      H22F          -25.6572434811       28.7802529878        1.8216890766  MEMB      88              0.0000000000
     11007        88  23SM      H22G          -27.2928357828       28.1903670751        1.5658642388  MEMB      88              0.0000000000
     11008        88  23SM      C23F          -25.8019675884       26.6192647889        1.5532852618  MEMB      88              0.0000000000
     11009        88  23SM      H23F          -26.5572345864       25.8195510608        1.6990127833  MEMB      88              0.0000000000
     11010        88  23SM      H23G          -24.8671782718       26.3217624556        2.0711693128  MEMB      88              0.0000000000
     11011        88  23SM      H23H          -25.5887319043       26.7003552632        0.4658181831  MEMB      88              0.0000000000
     11012        89  CHL1      C3             35.9444349128      -22.4544379008       17.4915288542  MEMB      89              0.0000000000
     11013        89  CHL1      H3             36.3867555254      -21.4639418754       17.2457024583  MEMB      89              0.0000000000
     11014        89  CHL1      O3             35.5814925280      -22.4917826968       18.8660770723  MEMB      89              0.0000000000
     11015        89  CHL1      H3'            34.9756376861      -21.7492262898       19.0151216221  MEMB      89              0.0000000000
     11016        89  CHL1      C4             34.6996346864      -22.7086200135       16.6244132148  MEMB      89              0.0000000000
     11017        89  CHL1      H4A            34.1939351971      -23.6065836210       17.0314763191  MEMB      89              0.0000000000
     11018        89  CHL1      H4B            33.9962057736      -21.8520417484       16.7686892683  MEMB      89              0.0000000000
     11019        89  CHL1      C5             34.9991775212      -22.9518479500       15.1557415816  MEMB      89              0.0000000000
     11020        89  CHL1      C6             34.2995520724      -22.3243591910       14.2126785745  MEMB      89              0.0000000000
     11021        89  CHL1      H6             33.4392932613      -21.7131688204       14.5182620110  MEMB      89              0.0000000000
     11022        89  CHL1      C7             34.5737890114      -22.4385899046       12.7466082155  MEMB      89              0.0000000000
     11023        89  CHL1      H7A            33.6472819652      -22.3839663669       12.1348775654  MEMB      89              0.0000000000
     11024        89  CHL1      H7B            35.2127340952      -21.5735813333       12.4650651078  MEMB      89              0.0000000000
     11025        89  CHL1      C8             35.3700417945      -23.6968950415       12.3838011408  MEMB      89              0.0000000000
     11026        89  CHL1      H8             34.6972033016      -24.5804513311       12.4710023499  MEMB      89              0.0000000000
     11027        89  CHL1      C14            35.8830258210      -23.5451638053       10.9683013305  MEMB      89              0.0000000000
     11028        89  CHL1      H14            36.5671933832      -22.6680907472       11.0154522884  MEMB      89              0.0000000000
     11029        89  CHL1      C15            34.8968676379      -23.1610210139        9.8410001998  MEMB      89              0.0000000000
     11030        89  CHL1      H15A           33.9277102053      -23.6954518991        9.9178187612  MEMB      89              0.0000000000
     11031        89  CHL1      H15B           34.7019916203      -22.0700193883        9.8321157719  MEMB      89              0.0000000000
     11032        89  CHL1      C16            35.6550769092      -23.5867221021        8.5807816349  MEMB      89              0.0000000000
     11033        89  CHL1      H16A           35.0532266145      -24.3557111305        8.0479491633  MEMB      89              0.0000000000
     11034        89  CHL1      H16B           35.8054831294      -22.7570136935        7.8742253298  MEMB      89              0.0000000000
     11035        89  CHL1      C17            37.0191648911      -24.2072861836        9.0535945683  MEMB      89              0.0000000000
     11036        89  CHL1      H17            37.7414602556      -23.3727394544        9.1675279637  MEMB      89              0.0000000000
     11037        89  CHL1      C13            36.7334474155      -24.7006836970       10.4605897920  MEMB      89              0.0000000000
     11038        89  CHL1      C18            35.8509750464      -25.9417430356       10.3381462719  MEMB      89              0.0000000000
     11039        89  CHL1      H18A           35.0208418104      -25.7566525806        9.6347251189  MEMB      89              0.0000000000
     11040        89  CHL1      H18B           36.4300034729      -26.7980026218        9.9489082100  MEMB      89              0.0000000000
     11041        89  CHL1      H18C           35.4127971389      -26.2397805320       11.3097963750  MEMB      89              0.0000000000
     11042        89  CHL1      C12            37.9402087132      -24.9411243635       11.3794858562  MEMB      89              0.0000000000
     11043        89  CHL1      H12A           38.3986023441      -25.9165165939       11.1142064646  MEMB      89              0.0000000000
     11044        89  CHL1      H12B           38.7113922129      -24.1594978581       11.2344946799  MEMB      89              0.0000000000
     11045        89  CHL1      C11            37.4940049671      -25.0086310123       12.8489550987  MEMB      89              0.0000000000
     11046        89  CHL1      H11A           36.8899980204      -25.9344310676       12.9235344049  MEMB      89              0.0000000000
     11047        89  CHL1      H11B           38.3871150034      -25.1158934700       13.5003156730  MEMB      89              0.0000000000
     11048        89  CHL1      C9             36.5756728937      -23.8471075311       13.3177265710  MEMB      89              0.0000000000
     11049        89  CHL1      H9             37.1766055894      -22.9158375034       13.2015780711  MEMB      89              0.0000000000
     11050        89  CHL1      C10            36.1584794467      -23.9035012160       14.8129717845  MEMB      89              0.0000000000
     11051        89  CHL1      C19            35.5671213833      -25.3003124622       15.0750327271  MEMB      89              0.0000000000
     11052        89  CHL1      H19A           36.2953211266      -26.1092495559       14.8876077308  MEMB      89              0.0000000000
     11053        89  CHL1      H19B           35.2900510833      -25.3859959058       16.1409337322  MEMB      89              0.0000000000
     11054        89  CHL1      H19C           34.6524877266      -25.4835196305       14.4732775750  MEMB      89              0.0000000000
     11055        89  CHL1      C1             37.3709944653      -23.6508011361       15.7542100538  MEMB      89              0.0000000000
     11056        89  CHL1      H1A            38.0894649816      -24.4972639072       15.6594660185  MEMB      89              0.0000000000
     11057        89  CHL1      H1B            37.9022816967      -22.7254137256       15.4483402918  MEMB      89              0.0000000000
     11058        89  CHL1      C2             36.9966649829      -23.5367754882       17.2471349292  MEMB      89              0.0000000000
     11059        89  CHL1      H2A            37.9011160832      -23.3264184378       17.8547531737  MEMB      89              0.0000000000
     11060        89  CHL1      H2B            36.5975847912      -24.5098742138       17.6029431137  MEMB      89              0.0000000000
     11061        89  CHL1      C20            37.5874512193      -25.1483452983        7.9936103524  MEMB      89              0.0000000000
     11062        89  CHL1      H20            36.8681570346      -25.9580907521        7.8650809317  MEMB      89              0.0000000000
     11063        89  CHL1      C21            38.8707316321      -25.9251917526        8.3414272865  MEMB      89              0.0000000000
     11064        89  CHL1      H21A           39.1831075313      -26.5477587896        7.4766803506  MEMB      89              0.0000000000
     11065        89  CHL1      H21B           38.6928900588      -26.6241192226        9.1789081093  MEMB      89              0.0000000000
     11066        89  CHL1      H21C           39.7017834601      -25.2720906753        8.5979978940  MEMB      89              0.0000000000
     11067        89  CHL1      C22            37.6768617748      -24.3183905313        6.7029937142  MEMB      89              0.0000000000
     11068        89  CHL1      H22A           36.6597995452      -23.9976090039        6.3822107678  MEMB      89              0.0000000000
     11069        89  CHL1      H22B           38.2713833528      -23.4118477946        6.9159827200  MEMB      89              0.0000000000
     11070        89  CHL1      C23            38.2744950012      -24.9132803613        5.4567507958  MEMB      89              0.0000000000
     11071        89  CHL1      H23A           39.3369744094      -25.2002968017        5.6128516953  MEMB      89              0.0000000000
     11072        89  CHL1      H23B           37.6960327821      -25.8230053587        5.1844944437  MEMB      89              0.0000000000
     11073        89  CHL1      C24            38.1677364663      -23.8200202600        4.3793707945  MEMB      89              0.0000000000
     11074        89  CHL1      H24A           37.0966376907      -23.6516166537        4.1296855253  MEMB      89              0.0000000000
     11075        89  CHL1      H24B           38.5745944535      -22.8619198314        4.7507531406  MEMB      89              0.0000000000
     11076        89  CHL1      C25            38.9295403109      -24.1997771867        3.1303498229  MEMB      89              0.0000000000
     11077        89  CHL1      H25            39.9983547352      -24.3214245788        3.4301188550  MEMB      89              0.0000000000
     11078        89  CHL1      C26            38.3420703392      -25.5156546646        2.6458118575  MEMB      89              0.0000000000
     11079        89  CHL1      H26A           38.7701703144      -25.8309664516        1.6816628882  MEMB      89              0.0000000000
     11080        89  CHL1      H26B           38.5169090313      -26.3576736418        3.3496919414  MEMB      89              0.0000000000
     11081        89  CHL1      H26C           37.2645323386      -25.3418529364        2.4890465968  MEMB      89              0.0000000000
     11082        89  CHL1      C27            38.8622840355      -23.1514925046        2.0129517078  MEMB      89              0.0000000000
     11083        89  CHL1      H27A           39.3156104168      -23.5631172084        1.0834835527  MEMB      89              0.0000000000
     11084        89  CHL1      H27B           37.8098384911      -22.8763155668        1.7980695254  MEMB      89              0.0000000000
     11085        89  CHL1      H27C           39.4208398260      -22.2387155829        2.3044952771  MEMB      89              0.0000000000
     11086        90  DOPC      N             -32.6527449000      -27.0767271079       20.3453761879  MEMB      90              0.0000000000
     11087        90  DOPC      C12           -33.2368006745      -25.7210936805       19.9749057304  MEMB      90              0.0000000000
     11088        90  DOPC      H12A          -33.1907690602      -25.5763082178       18.8951508967  MEMB      90              0.0000000000
     11089        90  DOPC      H12B          -32.6594939729      -24.9284262997       20.4412653906  MEMB      90              0.0000000000
     11090        90  DOPC      C13           -33.2261930511      -28.1028492599       19.4290109981  MEMB      90              0.0000000000
     11091        90  DOPC      H13A          -33.0430645212      -29.1068755626       19.7967902247  MEMB      90              0.0000000000
     11092        90  DOPC      H13B          -34.3078402657      -27.9464680635       19.3367140137  MEMB      90              0.0000000000
     11093        90  DOPC      H13C          -32.8276053391      -28.0188490502       18.4260206893  MEMB      90              0.0000000000
     11094        90  DOPC      C14           -33.0201002250      -27.4076136907       21.7724795259  MEMB      90              0.0000000000
     11095        90  DOPC      H14A          -32.5407720834      -28.3124633098       22.1175390062  MEMB      90              0.0000000000
     11096        90  DOPC      H14B          -32.7305714867      -26.5820479596       22.4264061757  MEMB      90              0.0000000000
     11097        90  DOPC      H14C          -34.1023829810      -27.5269622270       21.8400501200  MEMB      90              0.0000000000
     11098        90  DOPC      C15           -31.1677622390      -27.0594369013       20.2591364325  MEMB      90              0.0000000000
     11099        90  DOPC      H15A          -30.7878893972      -26.9714546775       19.2507219974  MEMB      90              0.0000000000
     11100        90  DOPC      H15B          -30.7663330925      -27.9731119216       20.6848120084  MEMB      90              0.0000000000
     11101        90  DOPC      H15C          -30.8031684223      -26.2396061791       20.8733874044  MEMB      90              0.0000000000
     11102        90  DOPC      C11           -34.7244110050      -25.4930866899       20.3221260791  MEMB      90              0.0000000000
     11103        90  DOPC      H11A          -34.9413556041      -25.7121629909       21.3854006112  MEMB      90              0.0000000000
     11104        90  DOPC      H11B          -34.9053102899      -24.3887245172       20.2286006731  MEMB      90              0.0000000000
     11105        90  DOPC      P             -36.1342252061      -25.5319028808       18.1915558521  MEMB      90              0.0000000000
     11106        90  DOPC      O13           -36.7460783760      -24.2553652329       18.6130700706  MEMB      90              0.0000000000
     11107        90  DOPC      O14           -36.9062543201      -26.4593804297       17.3622274579  MEMB      90              0.0000000000
     11108        90  DOPC      O12           -35.5772769917      -26.2937013422       19.4799761411  MEMB      90              0.0000000000
     11109        90  DOPC      O11           -34.7629122116      -25.2158269899       17.5241343289  MEMB      90              0.0000000000
     11110        90  DOPC      C1            -34.0128912976      -25.8910399928       16.5539456223  MEMB      90              0.0000000000
     11111        90  DOPC      HA            -34.6558726471      -26.3541423149       15.7696034185  MEMB      90              0.0000000000
     11112        90  DOPC      HB            -33.4023770629      -26.6793230999       17.0340650002  MEMB      90              0.0000000000
     11113        90  DOPC      C2            -33.1018477443      -24.8212547432       15.9351460790  MEMB      90              0.0000000000
     11114        90  DOPC      HS            -32.8544157378      -24.0515698534       16.7052091248  MEMB      90              0.0000000000
     11115        90  DOPC      O21           -33.8035930345      -24.2551754055       14.8522857728  MEMB      90              0.0000000000
     11116        90  DOPC      C21           -34.6329834271      -23.2607644221       15.0100199433  MEMB      90              0.0000000000
     11117        90  DOPC      O22           -34.8740220943      -22.6102165716       16.0058038998  MEMB      90              0.0000000000
     11118        90  DOPC      C22           -35.0382318134      -22.9356088331       13.5842644186  MEMB      90              0.0000000000
     11119        90  DOPC      H2R           -35.8765848381      -22.2227567708       13.6165901279  MEMB      90              0.0000000000
     11120        90  DOPC      H2S           -35.3670581396      -23.8754710181       13.0995720793  MEMB      90              0.0000000000
     11121        90  DOPC      C3            -31.7664835615      -25.3815260850       15.3885852600  MEMB      90              0.0000000000
     11122        90  DOPC      HX            -31.3580809722      -26.1101652198       16.1167607958  MEMB      90              0.0000000000
     11123        90  DOPC      HY            -31.0281873149      -24.5483512895       15.3191372038  MEMB      90              0.0000000000
     11124        90  DOPC      O31           -31.9709194504      -26.0580668020       14.1396308574  MEMB      90              0.0000000000
     11125        90  DOPC      C31           -31.5598633034      -25.3915809543       13.0656788136  MEMB      90              0.0000000000
     11126        90  DOPC      O32           -30.9847544720      -24.3213867651       13.0396193099  MEMB      90              0.0000000000
     11127        90  DOPC      C32           -31.7877019382      -26.2346803395       11.8655366591  MEMB      90              0.0000000000
     11128        90  DOPC      H2X           -32.6771962312      -26.8800269670       11.9790074410  MEMB      90              0.0000000000
     11129        90  DOPC      H2Y           -31.8917038807      -25.6327632707       10.9358429198  MEMB      90              0.0000000000
     11130        90  DOPC      C23           -33.7699366446      -22.3434378924       12.9315557430  MEMB      90              0.0000000000
     11131        90  DOPC      H3R           -32.8635148946      -22.9007715373       13.2592663653  MEMB      90              0.0000000000
     11132        90  DOPC      H3S           -33.6562796842      -21.3316577242       13.3603211381  MEMB      90              0.0000000000
     11133        90  DOPC      C24           -33.6503683648      -22.3702813557       11.4060190749  MEMB      90              0.0000000000
     11134        90  DOPC      H4R           -32.5842517194      -22.1654222332       11.1476791233  MEMB      90              0.0000000000
     11135        90  DOPC      H4S           -34.2400026706      -21.5651133270       10.9294227242  MEMB      90              0.0000000000
     11136        90  DOPC      C25           -34.0062879105      -23.7176153211       10.7974545099  MEMB      90              0.0000000000
     11137        90  DOPC      H5R           -35.0517684832      -24.0006772573       11.0436567155  MEMB      90              0.0000000000
     11138        90  DOPC      H5S           -33.3740405472      -24.4771718300       11.2582505959  MEMB      90              0.0000000000
     11139        90  DOPC      C26           -33.8484620130      -23.7055263209        9.2884809490  MEMB      90              0.0000000000
     11140        90  DOPC      H6R           -33.5671589839      -24.6990312861        8.8992362002  MEMB      90              0.0000000000
     11141        90  DOPC      H6S           -33.0528571553      -23.0091919733        8.9451855129  MEMB      90              0.0000000000
     11142        90  DOPC      C27           -35.2098035499      -23.3358937175        8.7352143060  MEMB      90              0.0000000000
     11143        90  DOPC      H7R           -35.4573905058      -22.3108550237        9.0984141477  MEMB      90              0.0000000000
     11144        90  DOPC      H7S           -35.9691802902      -23.9679683026        9.2191466366  MEMB      90              0.0000000000
     11145        90  DOPC      C28           -35.2862620403      -23.5349178107        7.2341249004  MEMB      90              0.0000000000
     11146        90  DOPC      H8R           -36.3233590785      -23.7082521774        6.8849533115  MEMB      90              0.0000000000
     11147        90  DOPC      H8S           -34.6730575317      -24.4029070609        6.9173019565  MEMB      90              0.0000000000
     11148        90  DOPC      C29           -34.7974384354      -22.2214758081        6.7466299024  MEMB      90              0.0000000000
     11149        90  DOPC      H9R           -35.2481256683      -21.3662721618        7.2623864470  MEMB      90              0.0000000000
     11150        90  DOPC      C210          -33.8660738691      -21.9934983995        5.8483274436  MEMB      90              0.0000000000
     11151        90  DOPC      H10R          -33.7348958081      -20.9660682770        5.5058871551  MEMB      90              0.0000000000
     11152        90  DOPC      C211          -33.0971510257      -23.0095560502        5.1127427040  MEMB      90              0.0000000000
     11153        90  DOPC      H11R          -33.3025311623      -22.6965346818        4.0670749743  MEMB      90              0.0000000000
     11154        90  DOPC      H11S          -33.5039316232      -24.0387091861        5.2433272824  MEMB      90              0.0000000000
     11155        90  DOPC      C212          -31.5691197583      -23.0603616484        5.2917426188  MEMB      90              0.0000000000
     11156        90  DOPC      H12R          -31.2917431477      -23.8586094198        6.0167175069  MEMB      90              0.0000000000
     11157        90  DOPC      H12S          -31.1587236458      -22.1070927321        5.6773881026  MEMB      90              0.0000000000
     11158        90  DOPC      C213          -30.9675560275      -23.3974526620        3.9294642541  MEMB      90              0.0000000000
     11159        90  DOPC      H13R          -29.8774465098      -23.5941341180        3.9951803486  MEMB      90              0.0000000000
     11160        90  DOPC      H13S          -31.1128506251      -22.5311019979        3.2414623579  MEMB      90              0.0000000000
     11161        90  DOPC      C214          -31.7417632433      -24.5923421140        3.3604027383  MEMB      90              0.0000000000
     11162        90  DOPC      H14R          -32.7712715134      -24.2702519900        3.1625693433  MEMB      90              0.0000000000
     11163        90  DOPC      H14S          -31.7620564757      -25.4333261288        4.0920701932  MEMB      90              0.0000000000
     11164        90  DOPC      C215          -31.2542441662      -25.0636800536        2.0205101137  MEMB      90              0.0000000000
     11165        90  DOPC      H15R          -31.0978133557      -24.1750821298        1.3821973213  MEMB      90              0.0000000000
     11166        90  DOPC      H15S          -31.9746168159      -25.6368055803        1.4248952709  MEMB      90              0.0000000000
     11167        90  DOPC      C216          -30.0947159598      -25.9856716199        2.3039909187  MEMB      90              0.0000000000
     11168        90  DOPC      H16R          -30.4525119925      -27.0430337155        2.2813013054  MEMB      90              0.0000000000
     11169        90  DOPC      H16S          -29.7177880557      -25.8050359993        3.3370251020  MEMB      90              0.0000000000
     11170        90  DOPC      C217          -28.9713399983      -25.7051084903        1.3469012529  MEMB      90              0.0000000000
     11171        90  DOPC      H17R          -29.3093726491      -26.0637834028        0.3524691624  MEMB      90              0.0000000000
     11172        90  DOPC      H17S          -28.1107166115      -26.3227724780        1.6791242378  MEMB      90              0.0000000000
     11173        90  DOPC      C218          -28.5391662755      -24.2300193470        1.2690368821  MEMB      90              0.0000000000
     11174        90  DOPC      H18R          -27.8068071374      -24.0079297331        2.0700374078  MEMB      90              0.0000000000
     11175        90  DOPC      H18S          -29.3434107376      -23.4836909353        1.3836106227  MEMB      90              0.0000000000
     11176        90  DOPC      H18T          -28.0604422778      -24.0411919683        0.2870053837  MEMB      90              0.0000000000
     11177        90  DOPC      C33           -30.5187660511      -27.0254456773       11.6538560711  MEMB      90              0.0000000000
     11178        90  DOPC      H3X           -29.6551994010      -26.3599839174       11.4172054426  MEMB      90              0.0000000000
     11179        90  DOPC      H3Y           -30.8514094428      -27.5601808970       10.7656231282  MEMB      90              0.0000000000
     11180        90  DOPC      C34           -30.1791574507      -28.0731181045       12.7009628999  MEMB      90              0.0000000000
     11181        90  DOPC      H4X           -29.9570342853      -27.5308382519       13.6472034146  MEMB      90              0.0000000000
     11182        90  DOPC      H4Y           -29.2579877551      -28.6172699307       12.4100226156  MEMB      90              0.0000000000
     11183        90  DOPC      C35           -31.2836345141      -29.1101073835       12.9346828396  MEMB      90              0.0000000000
     11184        90  DOPC      H5X           -32.2622895415      -28.6179937410       13.0964418077  MEMB      90              0.0000000000
     11185        90  DOPC      H5Y           -31.0202294721      -29.6121897938       13.8956190317  MEMB      90              0.0000000000
     11186        90  DOPC      C36           -31.3897481104      -30.2205008226       11.8692885589  MEMB      90              0.0000000000
     11187        90  DOPC      H6X           -30.4097536920      -30.7444893200       11.8092216999  MEMB      90              0.0000000000
     11188        90  DOPC      H6Y           -32.1164373089      -30.9727160721       12.2400194641  MEMB      90              0.0000000000
     11189        90  DOPC      C37           -31.8253724169      -29.8546699451       10.4300308111  MEMB      90              0.0000000000
     11190        90  DOPC      H7X           -30.9659229531      -29.4571847944        9.8619807623  MEMB      90              0.0000000000
     11191        90  DOPC      H7Y           -32.0197929797      -30.8201442666        9.9485914331  MEMB      90              0.0000000000
     11192        90  DOPC      C38           -33.0393697924      -28.8995822247       10.2824568885  MEMB      90              0.0000000000
     11193        90  DOPC      H8X           -32.6461109149      -27.9119440452        9.9695036662  MEMB      90              0.0000000000
     11194        90  DOPC      H8Y           -33.4891612622      -28.7690863154       11.2896590509  MEMB      90              0.0000000000
     11195        90  DOPC      C39           -34.1520899975      -29.2885916520        9.3505980859  MEMB      90              0.0000000000
     11196        90  DOPC      H9X           -34.4611894852      -30.3355562104        9.3993659152  MEMB      90              0.0000000000
     11197        90  DOPC      C310          -34.7422870078      -28.5286590715        8.4258356467  MEMB      90              0.0000000000
     11198        90  DOPC      H10X          -35.5579234522      -28.9723902170        7.8384474864  MEMB      90              0.0000000000
     11199        90  DOPC      C311          -34.4246960847      -27.0983477332        8.0910848519  MEMB      90              0.0000000000
     11200        90  DOPC      H11X          -34.1934276690      -26.5306340726        9.0122359043  MEMB      90              0.0000000000
     11201        90  DOPC      H11Y          -35.3060811593      -26.6131007877        7.6176301776  MEMB      90              0.0000000000
     11202        90  DOPC      C312          -33.2576554179      -26.9930014277        7.0868804450  MEMB      90              0.0000000000
     11203        90  DOPC      H12X          -32.2932922875      -27.0766959893        7.6366286007  MEMB      90              0.0000000000
     11204        90  DOPC      H12Y          -33.2632821938      -25.9882457307        6.6129800740  MEMB      90              0.0000000000
     11205        90  DOPC      C313          -33.2965672162      -28.0607008006        5.9772900092  MEMB      90              0.0000000000
     11206        90  DOPC      H13X          -32.4665874480      -27.8962734384        5.2562885930  MEMB      90              0.0000000000
     11207        90  DOPC      H13Y          -33.1327774768      -29.0450232926        6.4559615357  MEMB      90              0.0000000000
     11208        90  DOPC      C314          -34.6284527477      -28.1784329914        5.2364815123  MEMB      90              0.0000000000
     11209        90  DOPC      H14X          -34.6718392312      -29.1709039507        4.7332999096  MEMB      90              0.0000000000
     11210        90  DOPC      H14Y          -35.4799871260      -28.1347094537        5.9414782427  MEMB      90              0.0000000000
     11211        90  DOPC      C315          -34.8262279198      -27.0848537418        4.2043534926  MEMB      90              0.0000000000
     11212        90  DOPC      H15X          -34.4758481976      -26.1092602211        4.6082050423  MEMB      90              0.0000000000
     11213        90  DOPC      H15Y          -35.9174593392      -26.9965241487        4.0082999369  MEMB      90              0.0000000000
     11214        90  DOPC      C316          -34.0950744186      -27.4367738435        2.9104977845  MEMB      90              0.0000000000
     11215        90  DOPC      H16X          -33.0088295346      -27.5590890709        3.1306598451  MEMB      90              0.0000000000
     11216        90  DOPC      H16Y          -34.4833049201      -28.4098978263        2.5366249801  MEMB      90              0.0000000000
     11217        90  DOPC      C317          -34.2303421041      -26.3547428789        1.8449608731  MEMB      90              0.0000000000
     11218        90  DOPC      H17X          -33.8795838178      -25.4273897534        2.3041556400  MEMB      90              0.0000000000
     11219        90  DOPC      H17Y          -33.6184206903      -26.5358736885        0.9497924444  MEMB      90              0.0000000000
     11220        90  DOPC      C318          -35.6005123394      -25.9724611420        1.4191098099  MEMB      90              0.0000000000
     11221        90  DOPC      H18X          -36.1587008461      -26.7677160350        0.8926028955  MEMB      90              0.0000000000
     11222        90  DOPC      H18Y          -36.0994905673      -25.7620068201        2.3621804785  MEMB      90              0.0000000000
     11223        90  DOPC      H18Z          -35.5666166939      -25.0337131376        0.8271390930  MEMB      90              0.0000000000
     11224        91  DOPE      N             -31.9597396797       25.8430971310       17.5868612251  MEMB      91              0.0000000000
     11225        91  DOPE      HN1           -31.6539193203       26.5887375110       18.2733327401  MEMB      91              0.0000000000
     11226        91  DOPE      HN2           -31.3416462161       25.0186336435       17.7140450106  MEMB      91              0.0000000000
     11227        91  DOPE      HN3           -31.8657767858       26.3081314027       16.6683919001  MEMB      91              0.0000000000
     11228        91  DOPE      C12           -33.4025136557       25.5842592682       17.9134779450  MEMB      91              0.0000000000
     11229        91  DOPE      H12A          -33.4394517773       24.8297114056       18.7258006749  MEMB      91              0.0000000000
     11230        91  DOPE      H12B          -33.8961023099       25.1829727721       17.0067523321  MEMB      91              0.0000000000
     11231        91  DOPE      C11           -34.0808104858       26.8740035194       18.4080860886  MEMB      91              0.0000000000
     11232        91  DOPE      H11A          -35.1324592190       26.6211390762       18.6764993383  MEMB      91              0.0000000000
     11233        91  DOPE      H11B          -34.1482175313       27.6350681755       17.5925277550  MEMB      91              0.0000000000
     11234        91  DOPE      P             -32.3740138090       28.5470260080       19.5631922947  MEMB      91              0.0000000000
     11235        91  DOPE      O13           -31.2179033265       28.0304730160       18.7829171129  MEMB      91              0.0000000000
     11236        91  DOPE      O14           -32.1282660927       28.9425947265       20.9650300660  MEMB      91              0.0000000000
     11237        91  DOPE      O11           -33.1482316186       29.6017572906       18.7070318785  MEMB      91              0.0000000000
     11238        91  DOPE      O12           -33.4312694791       27.3621191318       19.5827974431  MEMB      91              0.0000000000
     11239        91  DOPE      C1            -34.2710645722       30.2335010113       19.3213445617  MEMB      91              0.0000000000
     11240        91  DOPE      HA            -33.8828957250       31.0910883886       19.9086694925  MEMB      91              0.0000000000
     11241        91  DOPE      HB            -34.8092670124       29.5520501435       20.0241764219  MEMB      91              0.0000000000
     11242        91  DOPE      C2            -35.3284375778       30.7332356432       18.2890771098  MEMB      91              0.0000000000
     11243        91  DOPE      HS            -35.9268748936       31.5346127174       18.7666128828  MEMB      91              0.0000000000
     11244        91  DOPE      O21           -36.1734685647       29.6065383777       18.0052934012  MEMB      91              0.0000000000
     11245        91  DOPE      C21           -36.9247878736       29.5269142796       16.9216513702  MEMB      91              0.0000000000
     11246        91  DOPE      O22           -37.3016775091       30.4375154964       16.2075241269  MEMB      91              0.0000000000
     11247        91  DOPE      C22           -36.9961301950       28.0177456035       16.5969333534  MEMB      91              0.0000000000
     11248        91  DOPE      H2R           -38.0594359602       27.7704912236       16.5290790800  MEMB      91              0.0000000000
     11249        91  DOPE      H2S           -36.6098819319       27.4287505631       17.4439398295  MEMB      91              0.0000000000
     11250        91  DOPE      C3            -34.6631843885       31.3347319613       17.0150809920  MEMB      91              0.0000000000
     11251        91  DOPE      HX            -33.8935454768       32.0510305978       17.3870844071  MEMB      91              0.0000000000
     11252        91  DOPE      HY            -35.4260153304       31.9197407957       16.4634296106  MEMB      91              0.0000000000
     11253        91  DOPE      O31           -34.1089679082       30.3087073999       16.1691523650  MEMB      91              0.0000000000
     11254        91  DOPE      C31           -32.9176276917       30.5507905092       15.6645837690  MEMB      91              0.0000000000
     11255        91  DOPE      O32           -32.3195456397       31.6090104069       15.6520451767  MEMB      91              0.0000000000
     11256        91  DOPE      C32           -32.4441494125       29.2689614785       14.9809989740  MEMB      91              0.0000000000
     11257        91  DOPE      H2X           -32.2184065136       28.5196892137       15.7644718925  MEMB      91              0.0000000000
     11258        91  DOPE      H2Y           -33.2888955942       28.9011807418       14.3591564942  MEMB      91              0.0000000000
     11259        91  DOPE      C23           -36.1606084282       27.7056597629       15.3231048239  MEMB      91              0.0000000000
     11260        91  DOPE      H3R           -35.1648803814       28.1710420920       15.4694654369  MEMB      91              0.0000000000
     11261        91  DOPE      H3S           -36.5702685809       28.2942775650       14.4894086778  MEMB      91              0.0000000000
     11262        91  DOPE      C24           -35.8628403653       26.2137500305       15.0053629825  MEMB      91              0.0000000000
     11263        91  DOPE      H4R           -36.2183849591       25.5931604866       15.8604495369  MEMB      91              0.0000000000
     11264        91  DOPE      H4S           -34.7558748088       26.0929131841       14.9605282814  MEMB      91              0.0000000000
     11265        91  DOPE      C25           -36.3801037214       25.5836947949       13.6807952893  MEMB      91              0.0000000000
     11266        91  DOPE      H5R           -37.1134287902       24.7881522404       13.9543720214  MEMB      91              0.0000000000
     11267        91  DOPE      H5S           -35.5382957538       25.0507847644       13.1786004441  MEMB      91              0.0000000000
     11268        91  DOPE      C26           -36.9827454581       26.5301857903       12.6200666566  MEMB      91              0.0000000000
     11269        91  DOPE      H6R           -37.4014781656       27.4432121146       13.0599073496  MEMB      91              0.0000000000
     11270        91  DOPE      H6S           -37.8788517176       26.0572161756       12.1633267305  MEMB      91              0.0000000000
     11271        91  DOPE      C27           -35.9658113508       26.9304255376       11.5321860923  MEMB      91              0.0000000000
     11272        91  DOPE      H7R           -35.7635493852       26.0421782836       10.8945446453  MEMB      91              0.0000000000
     11273        91  DOPE      H7S           -35.0033902679       27.2130797785       12.0147225137  MEMB      91              0.0000000000
     11274        91  DOPE      C28           -36.4170140971       28.1096344951       10.6536708677  MEMB      91              0.0000000000
     11275        91  DOPE      H8R           -35.5590329891       28.4398799834       10.0264266577  MEMB      91              0.0000000000
     11276        91  DOPE      H8S           -36.6842915213       28.9767977896       11.2974722835  MEMB      91              0.0000000000
     11277        91  DOPE      C29           -37.5925829296       27.6545843795        9.8337206594  MEMB      91              0.0000000000
     11278        91  DOPE      H9R           -38.5062695400       27.4884139577       10.4238387516  MEMB      91              0.0000000000
     11279        91  DOPE      C210          -37.5996042441       27.3809688226        8.5176532750  MEMB      91              0.0000000000
     11280        91  DOPE      H10R          -38.5241551364       26.9940612303        8.0632261431  MEMB      91              0.0000000000
     11281        91  DOPE      C211          -36.4126499199       27.4816314650        7.5946503368  MEMB      91              0.0000000000
     11282        91  DOPE      H11R          -35.6793923611       28.2253342181        7.9766956857  MEMB      91              0.0000000000
     11283        91  DOPE      H11S          -36.7401116748       27.8595933967        6.6027786326  MEMB      91              0.0000000000
     11284        91  DOPE      C212          -35.6342336661       26.1599580898        7.4459075636  MEMB      91              0.0000000000
     11285        91  DOPE      H12R          -35.7235265007       25.5655657458        8.3851208030  MEMB      91              0.0000000000
     11286        91  DOPE      H12S          -34.5525194886       26.3886762441        7.3136787682  MEMB      91              0.0000000000
     11287        91  DOPE      C213          -36.0796769448       25.2883256135        6.2649426861  MEMB      91              0.0000000000
     11288        91  DOPE      H13R          -37.1770519220       25.1240553152        6.3427234127  MEMB      91              0.0000000000
     11289        91  DOPE      H13S          -35.5561100755       24.3079394302        6.3612784063  MEMB      91              0.0000000000
     11290        91  DOPE      C214          -35.7497006725       25.8638031685        4.8790567369  MEMB      91              0.0000000000
     11291        91  DOPE      H14R          -34.6696831966       25.7121786301        4.6728122112  MEMB      91              0.0000000000
     11292        91  DOPE      H14S          -35.9412318565       26.9541534071        4.9212727126  MEMB      91              0.0000000000
     11293        91  DOPE      C215          -36.5618451284       25.3140475600        3.6880108895  MEMB      91              0.0000000000
     11294        91  DOPE      H15R          -37.6346940934       25.4834072882        3.9087634364  MEMB      91              0.0000000000
     11295        91  DOPE      H15S          -36.3898955365       24.2287940350        3.5431365670  MEMB      91              0.0000000000
     11296        91  DOPE      C216          -36.1802312800       26.0466881681        2.3957065416  MEMB      91              0.0000000000
     11297        91  DOPE      H16R          -35.0689609133       26.1094450722        2.3728238097  MEMB      91              0.0000000000
     11298        91  DOPE      H16S          -36.6025803037       27.0725051638        2.4752297269  MEMB      91              0.0000000000
     11299        91  DOPE      C217          -36.6087281808       25.4605025091        1.0455305448  MEMB      91              0.0000000000
     11300        91  DOPE      H17R          -37.7098418868       25.3494784520        1.0204838786  MEMB      91              0.0000000000
     11301        91  DOPE      H17S          -36.1662900068       24.4494269290        0.9226095273  MEMB      91              0.0000000000
     11302        91  DOPE      C218          -36.1718569511       26.3530950784       -0.1272589698  MEMB      91              0.0000000000
     11303        91  DOPE      H18R          -36.6297595298       26.0187242768       -1.0824645296  MEMB      91              0.0000000000
     11304        91  DOPE      H18S          -35.0672530763       26.3400521061       -0.2395627958  MEMB      91              0.0000000000
     11305        91  DOPE      H18T          -36.4803275481       27.4066189520        0.0491424967  MEMB      91              0.0000000000
     11306        91  DOPE      C33           -31.2226168847       29.5049045593       14.0704830458  MEMB      91              0.0000000000
     11307        91  DOPE      H3X           -30.2914151995       29.5822582287       14.6745003059  MEMB      91              0.0000000000
     11308        91  DOPE      H3Y           -31.3374402865       30.4700429048       13.5233438887  MEMB      91              0.0000000000
     11309        91  DOPE      C34           -31.0861100745       28.3999719450       13.0204074048  MEMB      91              0.0000000000
     11310        91  DOPE      H4X           -30.9163957313       27.4263117150       13.5305913326  MEMB      91              0.0000000000
     11311        91  DOPE      H4Y           -32.0414860759       28.3246918580       12.4524490758  MEMB      91              0.0000000000
     11312        91  DOPE      C35           -29.9400143503       28.6605389796       12.0363440855  MEMB      91              0.0000000000
     11313        91  DOPE      H5X           -29.0159821822       28.9055863155       12.6094236991  MEMB      91              0.0000000000
     11314        91  DOPE      H5Y           -30.1788971232       29.5462840944       11.4067293356  MEMB      91              0.0000000000
     11315        91  DOPE      C36           -29.6378173629       27.4518155289       11.1415884754  MEMB      91              0.0000000000
     11316        91  DOPE      H6X           -29.2322131540       26.6345440918       11.7807259441  MEMB      91              0.0000000000
     11317        91  DOPE      H6Y           -28.8459434171       27.7226628739       10.4091910204  MEMB      91              0.0000000000
     11318        91  DOPE      C37           -30.8445480875       26.9007725143       10.3720025869  MEMB      91              0.0000000000
     11319        91  DOPE      H7X           -31.6579457354       26.6441055373       11.0862038164  MEMB      91              0.0000000000
     11320        91  DOPE      H7Y           -31.2288761612       27.6828928278        9.6793602705  MEMB      91              0.0000000000
     11321        91  DOPE      C38           -30.4476996192       25.6398081929        9.5882486252  MEMB      91              0.0000000000
     11322        91  DOPE      H8X           -29.9944418174       24.9153495974       10.3023151830  MEMB      91              0.0000000000
     11323        91  DOPE      H8Y           -29.6412778254       25.9395301733        8.8824502226  MEMB      91              0.0000000000
     11324        91  DOPE      C39           -31.6204629023       24.9951525262        8.8940450688  MEMB      91              0.0000000000
     11325        91  DOPE      H9X           -32.5271391933       24.8976343077        9.5139516473  MEMB      91              0.0000000000
     11326        91  DOPE      C310          -31.6596304948       24.5823316208        7.6129668236  MEMB      91              0.0000000000
     11327        91  DOPE      H10X          -32.5917198741       24.1398808400        7.2304471060  MEMB      91              0.0000000000
     11328        91  DOPE      C311          -30.5446010281       24.6739697941        6.5960212770  MEMB      91              0.0000000000
     11329        91  DOPE      H11X          -29.5891050162       25.0272500109        7.0436315964  MEMB      91              0.0000000000
     11330        91  DOPE      H11Y          -30.3340425085       23.6631875695        6.1825802075  MEMB      91              0.0000000000
     11331        91  DOPE      C312          -30.9042424844       25.6305349562        5.4377133579  MEMB      91              0.0000000000
     11332        91  DOPE      H12X          -31.8046746331       25.2525592111        4.9057029202  MEMB      91              0.0000000000
     11333        91  DOPE      H12Y          -30.0636078575       25.6336280161        4.7062886599  MEMB      91              0.0000000000
     11334        91  DOPE      C313          -31.1412497664       27.0749683648        5.9144977139  MEMB      91              0.0000000000
     11335        91  DOPE      H13X          -31.9385590011       27.0948528571        6.6902887937  MEMB      91              0.0000000000
     11336        91  DOPE      H13Y          -30.2012392739       27.4353847054        6.3914480574  MEMB      91              0.0000000000
     11337        91  DOPE      C314          -31.5378986174       28.0721970381        4.8186196725  MEMB      91              0.0000000000
     11338        91  DOPE      H14X          -30.8149224975       28.0469593366        3.9755977926  MEMB      91              0.0000000000
     11339        91  DOPE      H14Y          -31.4929725443       29.0819969424        5.2810059755  MEMB      91              0.0000000000
     11340        91  DOPE      C315          -32.9688652709       27.9067787696        4.3031856619  MEMB      91              0.0000000000
     11341        91  DOPE      H15X          -33.6667581474       28.0487385464        5.1624430135  MEMB      91              0.0000000000
     11342        91  DOPE      H15Y          -33.1252271948       26.8873574400        3.8945098352  MEMB      91              0.0000000000
     11343        91  DOPE      C316          -33.3229162707       28.9456975384        3.2314440711  MEMB      91              0.0000000000
     11344        91  DOPE      H16X          -32.6644929714       28.8323636663        2.3415939596  MEMB      91              0.0000000000
     11345        91  DOPE      H16Y          -33.1342925366       29.9397736479        3.6670533444  MEMB      91              0.0000000000
     11346        91  DOPE      C317          -34.7902613852       28.8325892262        2.8102107713  MEMB      91              0.0000000000
     11347        91  DOPE      H17X          -34.7900132035       28.0869006037        1.9884795676  MEMB      91              0.0000000000
     11348        91  DOPE      H17Y          -35.3355492539       28.4313518475        3.6911498657  MEMB      91              0.0000000000
     11349        91  DOPE      C318          -35.5906251282       30.0425854164        2.3182606257  MEMB      91              0.0000000000
     11350        91  DOPE      H18X          -36.6512918023       29.7308933716        2.1830133630  MEMB      91              0.0000000000
     11351        91  DOPE      H18Y          -35.5793178329       30.8758794924        3.0479559632  MEMB      91              0.0000000000
     11352        91  DOPE      H18Z          -35.2111370805       30.3998729486        1.3402495996  MEMB      91              0.0000000000
     11353        92  DOPE      N              20.1409383142       36.4921479473       16.7710019840  MEMB      92              0.0000000000
     11354        92  DOPE      HN1            19.1196060636       36.6627665285       16.8374751722  MEMB      92              0.0000000000
     11355        92  DOPE      HN2            20.5687621096       37.0800125413       16.0281239465  MEMB      92              0.0000000000
     11356        92  DOPE      HN3            20.2752310857       35.4747147971       16.5281557872  MEMB      92              0.0000000000
     11357        92  DOPE      C12            20.8298648315       36.7504804138       18.0871474813  MEMB      92              0.0000000000
     11358        92  DOPE      H12A           20.2479625096       36.2275792914       18.8763154300  MEMB      92              0.0000000000
     11359        92  DOPE      H12B           20.7907790596       37.8452163381       18.2748465982  MEMB      92              0.0000000000
     11360        92  DOPE      C11            22.2875800019       36.2187622382       18.0916855427  MEMB      92              0.0000000000
     11361        92  DOPE      H11A           22.9280663361       36.7930344306       17.3789968729  MEMB      92              0.0000000000
     11362        92  DOPE      H11B           22.2891498781       35.1689074493       17.7320006022  MEMB      92              0.0000000000
     11363        92  DOPE      P              22.9792431991       37.6270946828       20.1634614048  MEMB      92              0.0000000000
     11364        92  DOPE      O13            24.1789616482       37.7474791424       21.0246472843  MEMB      92              0.0000000000
     11365        92  DOPE      O14            21.6644202703       37.9933814911       20.7514829890  MEMB      92              0.0000000000
     11366        92  DOPE      O11            23.1571806906       38.5658496139       18.8843006436  MEMB      92              0.0000000000
     11367        92  DOPE      O12            22.8662583327       36.2189193250       19.4058633245  MEMB      92              0.0000000000
     11368        92  DOPE      C1             23.5137949936       39.9367151513       19.0563122040  MEMB      92              0.0000000000
     11369        92  DOPE      HA             24.5626947740       40.0104009700       19.4221306622  MEMB      92              0.0000000000
     11370        92  DOPE      HB             22.8438412648       40.4357357131       19.7927900448  MEMB      92              0.0000000000
     11371        92  DOPE      C2             23.3666741469       40.7967996389       17.7660762591  MEMB      92              0.0000000000
     11372        92  DOPE      HS             23.3342296496       41.8618995733       18.0897239591  MEMB      92              0.0000000000
     11373        92  DOPE      O21            22.1525495228       40.4408798339       17.0670861142  MEMB      92              0.0000000000
     11374        92  DOPE      C21            21.8981260184       41.2303519044       16.0284864220  MEMB      92              0.0000000000
     11375        92  DOPE      O22            22.5566799196       42.1875110468       15.6796708045  MEMB      92              0.0000000000
     11376        92  DOPE      C22            20.6579768645       40.7029322128       15.3217567787  MEMB      92              0.0000000000
     11377        92  DOPE      H2R            19.7956420029       40.8894504191       15.9931329253  MEMB      92              0.0000000000
     11378        92  DOPE      H2S            20.7699727489       39.6114757299       15.1762671124  MEMB      92              0.0000000000
     11379        92  DOPE      C3             24.6383018810       40.6437224088       16.8531672770  MEMB      92              0.0000000000
     11380        92  DOPE      HX             25.4652271622       40.8241481181       17.5783767140  MEMB      92              0.0000000000
     11381        92  DOPE      HY             24.6665079939       41.4646377041       16.1195388711  MEMB      92              0.0000000000
     11382        92  DOPE      O31            24.8090314310       39.3996904234       16.1368985865  MEMB      92              0.0000000000
     11383        92  DOPE      C31            26.0943906110       39.1925739426       15.8286240987  MEMB      92              0.0000000000
     11384        92  DOPE      O32            27.0355358439       39.8699153595       16.1861856097  MEMB      92              0.0000000000
     11385        92  DOPE      C32            26.2426852768       37.9038645546       15.0481455277  MEMB      92              0.0000000000
     11386        92  DOPE      H2X            26.8617717469       37.2835580196       15.7316117175  MEMB      92              0.0000000000
     11387        92  DOPE      H2Y            25.2513047875       37.4322323417       14.9427535288  MEMB      92              0.0000000000
     11388        92  DOPE      C23            20.4280339278       41.4067997184       13.9693623723  MEMB      92              0.0000000000
     11389        92  DOPE      H3R            20.6135007739       42.5035499196       14.0530328853  MEMB      92              0.0000000000
     11390        92  DOPE      H3S            19.3563146486       41.2836453850       13.6901296056  MEMB      92              0.0000000000
     11391        92  DOPE      C24            21.2902730786       40.8067834603       12.8492920410  MEMB      92              0.0000000000
     11392        92  DOPE      H4R            21.1625131127       39.7007731276       12.8371708425  MEMB      92              0.0000000000
     11393        92  DOPE      H4S            22.3645806648       41.0240083484       13.0486789450  MEMB      92              0.0000000000
     11394        92  DOPE      C25            20.8911279966       41.3536516031       11.4737251811  MEMB      92              0.0000000000
     11395        92  DOPE      H5R            21.0382633980       42.4575960035       11.4561030951  MEMB      92              0.0000000000
     11396        92  DOPE      H5S            19.8018887724       41.1586951533       11.3320077039  MEMB      92              0.0000000000
     11397        92  DOPE      C26            21.6504875089       40.7016063260       10.3116521394  MEMB      92              0.0000000000
     11398        92  DOPE      H6R            21.1696888749       41.0183470253        9.3581552870  MEMB      92              0.0000000000
     11399        92  DOPE      H6S            21.5541526593       39.5945672290       10.3861241833  MEMB      92              0.0000000000
     11400        92  DOPE      C27            23.1450594013       41.0596462306       10.2404652371  MEMB      92              0.0000000000
     11401        92  DOPE      H7R            23.6496900087       40.6313588113       11.1332357515  MEMB      92              0.0000000000
     11402        92  DOPE      H7S            23.2579520423       42.1666234440       10.2860603645  MEMB      92              0.0000000000
     11403        92  DOPE      C28            23.7816569585       40.5583044400        8.9220634680  MEMB      92              0.0000000000
     11404        92  DOPE      H8R            23.9812848308       41.4414423331        8.2762213075  MEMB      92              0.0000000000
     11405        92  DOPE      H8S            22.9823475584       39.9872639888        8.4096244693  MEMB      92              0.0000000000
     11406        92  DOPE      C29            25.0000848673       39.6729131423        9.0154989343  MEMB      92              0.0000000000
     11407        92  DOPE      H9R            25.1320602480       39.1394160847        9.9646775523  MEMB      92              0.0000000000
     11408        92  DOPE      C210           25.9528640574       39.5668419361        8.0709181743  MEMB      92              0.0000000000
     11409        92  DOPE      H10R           26.8421625560       38.9443560170        8.2702619509  MEMB      92              0.0000000000
     11410        92  DOPE      C211           25.9300381776       40.3313541364        6.7747870171  MEMB      92              0.0000000000
     11411        92  DOPE      H11R           25.9605117119       41.4077962956        7.0434856508  MEMB      92              0.0000000000
     11412        92  DOPE      H11S           24.9552223466       40.1557270138        6.2825692759  MEMB      92              0.0000000000
     11413        92  DOPE      C212           27.0403642204       40.1201501092        5.7177524753  MEMB      92              0.0000000000
     11414        92  DOPE      H12R           28.0185112610       39.9640743357        6.2446997769  MEMB      92              0.0000000000
     11415        92  DOPE      H12S           27.1676565925       41.0473835062        5.1153905010  MEMB      92              0.0000000000
     11416        92  DOPE      C213           26.8347963665       38.9028946974        4.7861745645  MEMB      92              0.0000000000
     11417        92  DOPE      H13R           26.9472094641       38.1060779720        5.5300566669  MEMB      92              0.0000000000
     11418        92  DOPE      H13S           27.6410762515       38.8365278799        4.0223035029  MEMB      92              0.0000000000
     11419        92  DOPE      C214           25.4945147888       38.4448122646        4.1907598973  MEMB      92              0.0000000000
     11420        92  DOPE      H14R           25.4859349008       38.5539521253        3.0850665315  MEMB      92              0.0000000000
     11421        92  DOPE      H14S           24.7321010916       39.1119090633        4.6314287636  MEMB      92              0.0000000000
     11422        92  DOPE      C215           25.0186824804       37.0096733274        4.5807312557  MEMB      92              0.0000000000
     11423        92  DOPE      H15R           24.0758708889       36.7556060998        4.0636472259  MEMB      92              0.0000000000
     11424        92  DOPE      H15S           24.8040590989       37.0804142908        5.6743634590  MEMB      92              0.0000000000
     11425        92  DOPE      C216           25.8937344385       35.7564347340        4.3849861462  MEMB      92              0.0000000000
     11426        92  DOPE      H16R           25.4383648123       34.9374065967        4.9849973628  MEMB      92              0.0000000000
     11427        92  DOPE      H16S           26.8493473339       35.9168671204        4.8756742655  MEMB      92              0.0000000000
     11428        92  DOPE      C217           26.1679065980       35.2243022282        2.9677727739  MEMB      92              0.0000000000
     11429        92  DOPE      H17R           26.9531362326       34.4415247976        3.1066048544  MEMB      92              0.0000000000
     11430        92  DOPE      H17S           26.6239256432       36.0196719795        2.3399016710  MEMB      92              0.0000000000
     11431        92  DOPE      C218           24.9918667440       34.5721305905        2.2226076628  MEMB      92              0.0000000000
     11432        92  DOPE      H18R           24.2235385987       35.3226374206        1.9409829982  MEMB      92              0.0000000000
     11433        92  DOPE      H18S           24.5118024531       33.7768869696        2.8337849955  MEMB      92              0.0000000000
     11434        92  DOPE      H18T           25.3605469635       34.0968242878        1.2856737160  MEMB      92              0.0000000000
     11435        92  DOPE      C33            26.9860156984       38.0272499231       13.6963878365  MEMB      92              0.0000000000
     11436        92  DOPE      H3X            27.5949102150       37.1069537838       13.5542912111  MEMB      92              0.0000000000
     11437        92  DOPE      H3Y            27.7055125680       38.8736457052       13.7163477434  MEMB      92              0.0000000000
     11438        92  DOPE      C34            26.0500376853       38.1185815070       12.4813416434  MEMB      92              0.0000000000
     11439        92  DOPE      H4X            25.3804349251       38.9997342840       12.5841238582  MEMB      92              0.0000000000
     11440        92  DOPE      H4Y            26.6755322511       38.2738109007       11.5717661315  MEMB      92              0.0000000000
     11441        92  DOPE      C35            25.2244194212       36.8357378793       12.2826552865  MEMB      92              0.0000000000
     11442        92  DOPE      H5X            24.7208429568       36.5257053056       13.2206861871  MEMB      92              0.0000000000
     11443        92  DOPE      H5Y            25.9273040468       36.0178349077       12.0045984106  MEMB      92              0.0000000000
     11444        92  DOPE      C36            24.1362844555       36.9295746855       11.2124749036  MEMB      92              0.0000000000
     11445        92  DOPE      H6X            24.5601169972       37.3226462261       10.2687279852  MEMB      92              0.0000000000
     11446        92  DOPE      H6Y            23.3256100889       37.6224112910       11.5263474847  MEMB      92              0.0000000000
     11447        92  DOPE      C37            23.5676042628       35.5487199739       10.8604612600  MEMB      92              0.0000000000
     11448        92  DOPE      H7X            24.4205414206       34.8325646924       10.8362543418  MEMB      92              0.0000000000
     11449        92  DOPE      H7Y            22.8800497038       35.2119200081       11.6645478032  MEMB      92              0.0000000000
     11450        92  DOPE      C38            22.8878686299       35.5333883552        9.4784901763  MEMB      92              0.0000000000
     11451        92  DOPE      H8X            22.4754191406       34.5218105207        9.2831925345  MEMB      92              0.0000000000
     11452        92  DOPE      H8Y            23.6719984680       35.7116498881        8.7101052170  MEMB      92              0.0000000000
     11453        92  DOPE      C39            21.8086064679       36.5819700995        9.4259607371  MEMB      92              0.0000000000
     11454        92  DOPE      H9X            21.1774971657       36.6237712814       10.3263506323  MEMB      92              0.0000000000
     11455        92  DOPE      C310           21.5520224434       37.4422244892        8.4258536005  MEMB      92              0.0000000000
     11456        92  DOPE      H10X           20.7391831182       38.1698762628        8.5673904182  MEMB      92              0.0000000000
     11457        92  DOPE      C311           22.2648617372       37.5781480203        7.1014200564  MEMB      92              0.0000000000
     11458        92  DOPE      H11X           22.8208074799       38.5354113492        7.0426672011  MEMB      92              0.0000000000
     11459        92  DOPE      H11Y           23.0152877420       36.7735061721        6.9403876645  MEMB      92              0.0000000000
     11460        92  DOPE      C312           21.2266322467       37.5508377258        5.9617349255  MEMB      92              0.0000000000
     11461        92  DOPE      H12X           20.2620081257       38.0081332219        6.2743310784  MEMB      92              0.0000000000
     11462        92  DOPE      H12Y           21.0302803027       36.4793797466        5.7276838143  MEMB      92              0.0000000000
     11463        92  DOPE      C313           21.6629581228       38.2639035447        4.6736143716  MEMB      92              0.0000000000
     11464        92  DOPE      H13X           22.7077062582       38.0126909745        4.4578079434  MEMB      92              0.0000000000
     11465        92  DOPE      H13Y           21.0483068773       37.8834239664        3.8284054251  MEMB      92              0.0000000000
     11466        92  DOPE      C314           21.5857710617       39.7947060999        4.6771813361  MEMB      92              0.0000000000
     11467        92  DOPE      H14X           22.3710523486       40.1905125060        5.3620705202  MEMB      92              0.0000000000
     11468        92  DOPE      H14Y           20.6024482990       40.1279808084        5.0682872848  MEMB      92              0.0000000000
     11469        92  DOPE      C315           21.8054120649       40.3608890513        3.2590382612  MEMB      92              0.0000000000
     11470        92  DOPE      H15X           21.5285970256       41.4341541393        3.2491034852  MEMB      92              0.0000000000
     11471        92  DOPE      H15Y           21.1379530903       39.8412184265        2.5385932130  MEMB      92              0.0000000000
     11472        92  DOPE      C316           23.2677852122       40.2177375643        2.8198462959  MEMB      92              0.0000000000
     11473        92  DOPE      H16X           23.4769832442       39.1461902388        2.6096817120  MEMB      92              0.0000000000
     11474        92  DOPE      H16Y           23.9137129033       40.5530863712        3.6609083331  MEMB      92              0.0000000000
     11475        92  DOPE      C317           23.7536264460       41.0628502532        1.6471610805  MEMB      92              0.0000000000
     11476        92  DOPE      H17X           23.9634324915       42.0935549347        2.0153996219  MEMB      92              0.0000000000
     11477        92  DOPE      H17Y           24.7284964891       40.6174182916        1.3464852098  MEMB      92              0.0000000000
     11478        92  DOPE      C318           22.8183661844       41.1366475460        0.4478492979  MEMB      92              0.0000000000
     11479        92  DOPE      H18X           21.8364369652       41.5332360704        0.7705387908  MEMB      92              0.0000000000
     11480        92  DOPE      H18Y           23.2320391748       41.8227911327       -0.3214985435  MEMB      92              0.0000000000
     11481        92  DOPE      H18Z           22.6658775831       40.1339959727       -0.0027452796  MEMB      92              0.0000000000
     11482        93  DOPC      N              31.1884860459       32.3536368186       18.0137151183  MEMB      93              0.0000000000
     11483        93  DOPC      C12            30.5789702195       31.9550805888       19.3550710717  MEMB      93              0.0000000000
     11484        93  DOPC      H12A           30.5834725000       32.8356713281       19.9974150590  MEMB      93              0.0000000000
     11485        93  DOPC      H12B           31.2218574519       31.2321417238       19.8339678201  MEMB      93              0.0000000000
     11486        93  DOPC      C13            32.6534694591       32.6235266683       18.1579755589  MEMB      93              0.0000000000
     11487        93  DOPC      H13A           33.0402218054       33.0689401230       17.2445163676  MEMB      93              0.0000000000
     11488        93  DOPC      H13B           32.8783434800       33.3051127157       18.9699785906  MEMB      93              0.0000000000
     11489        93  DOPC      H13C           33.2151258557       31.7066536436       18.3407397924  MEMB      93              0.0000000000
     11490        93  DOPC      C14            30.4660717969       33.5877236503       17.5441133344  MEMB      93              0.0000000000
     11491        93  DOPC      H14A           29.3876865538       33.3928069260       17.5536853917  MEMB      93              0.0000000000
     11492        93  DOPC      H14B           30.5859202917       34.4074866431       18.2505564748  MEMB      93              0.0000000000
     11493        93  DOPC      H14C           30.7603495053       33.9204673520       16.5641634659  MEMB      93              0.0000000000
     11494        93  DOPC      C15            31.0289550386       31.2470840096       17.0199778608  MEMB      93              0.0000000000
     11495        93  DOPC      H15A           31.5373190544       31.4683400092       16.0931189389  MEMB      93              0.0000000000
     11496        93  DOPC      H15B           29.9753061771       31.0856557741       16.8302997481  MEMB      93              0.0000000000
     11497        93  DOPC      H15C           31.4304333905       30.3076563338       17.3985564898  MEMB      93              0.0000000000
     11498        93  DOPC      C11            29.1160292449       31.4322751611       19.3874820394  MEMB      93              0.0000000000
     11499        93  DOPC      H11A           28.9976776240       30.6048127072       18.6578257430  MEMB      93              0.0000000000
     11500        93  DOPC      H11B           28.9018848170       30.9834784185       20.3891845207  MEMB      93              0.0000000000
     11501        93  DOPC      P              27.8967177010       33.5767931072       20.1777699535  MEMB      93              0.0000000000
     11502        93  DOPC      O13            29.1457330897       34.3676184679       20.3360996132  MEMB      93              0.0000000000
     11503        93  DOPC      O14            27.4003810702       32.8095641775       21.3403815005  MEMB      93              0.0000000000
     11504        93  DOPC      O12            28.1851663566       32.4713135140       19.0708156649  MEMB      93              0.0000000000
     11505        93  DOPC      O11            26.7075640549       34.3622624365       19.5164840553  MEMB      93              0.0000000000
     11506        93  DOPC      C1             26.7360808212       34.9060108100       18.2036661617  MEMB      93              0.0000000000
     11507        93  DOPC      HA             27.7536760181       35.2432347190       17.9036546549  MEMB      93              0.0000000000
     11508        93  DOPC      HB             26.0982254841       35.8237281304       18.2182497362  MEMB      93              0.0000000000
     11509        93  DOPC      C2             26.1232635704       33.9481529008       17.1317571882  MEMB      93              0.0000000000
     11510        93  DOPC      HS             25.1350041163       33.6140151311       17.5237228142  MEMB      93              0.0000000000
     11511        93  DOPC      O21            26.9845866072       32.8496567784       16.7959022061  MEMB      93              0.0000000000
     11512        93  DOPC      C21            26.4666722175       31.6526303580       16.6460995653  MEMB      93              0.0000000000
     11513        93  DOPC      O22            25.3450756615       31.3088338447       16.9981555339  MEMB      93              0.0000000000
     11514        93  DOPC      C22            27.5530816663       30.7528965483       16.0273644784  MEMB      93              0.0000000000
     11515        93  DOPC      H2R            27.8165492420       30.0248242414       16.8207792064  MEMB      93              0.0000000000
     11516        93  DOPC      H2S            28.4432091798       31.3721096841       15.7943733849  MEMB      93              0.0000000000
     11517        93  DOPC      C3             25.9200802309       34.7169898298       15.8228321240  MEMB      93              0.0000000000
     11518        93  DOPC      HX             25.3444506453       35.6411313306       16.0342687461  MEMB      93              0.0000000000
     11519        93  DOPC      HY             25.2878376362       34.0729271229       15.1622817874  MEMB      93              0.0000000000
     11520        93  DOPC      O31            27.2454515419       35.0309571348       15.3079611872  MEMB      93              0.0000000000
     11521        93  DOPC      C31            27.4973590721       34.4794942502       14.1331907309  MEMB      93              0.0000000000
     11522        93  DOPC      O32            26.6474364482       34.0707377024       13.3691338866  MEMB      93              0.0000000000
     11523        93  DOPC      C32            28.9950972181       34.3758059636       13.8385627108  MEMB      93              0.0000000000
     11524        93  DOPC      H2X            29.3338395187       33.3981559923       14.2398894954  MEMB      93              0.0000000000
     11525        93  DOPC      H2Y            29.0875063170       34.3373724547       12.7304025874  MEMB      93              0.0000000000
     11526        93  DOPC      C23            27.1527919985       29.9731262993       14.7495447418  MEMB      93              0.0000000000
     11527        93  DOPC      H3R            26.1323546411       29.5498438537       14.8626071066  MEMB      93              0.0000000000
     11528        93  DOPC      H3S            27.8525506363       29.1105968349       14.6403930675  MEMB      93              0.0000000000
     11529        93  DOPC      C24            27.2367489594       30.8093995314       13.4644106733  MEMB      93              0.0000000000
     11530        93  DOPC      H4R            28.2450268724       31.2700188567       13.3704678201  MEMB      93              0.0000000000
     11531        93  DOPC      H4S            26.4882553466       31.6296959304       13.5286843508  MEMB      93              0.0000000000
     11532        93  DOPC      C25            26.9472923245       29.9782244931       12.2045254320  MEMB      93              0.0000000000
     11533        93  DOPC      H5R            25.9326962611       29.5308598085       12.2978133768  MEMB      93              0.0000000000
     11534        93  DOPC      H5S            27.6769498726       29.1405412455       12.1346492005  MEMB      93              0.0000000000
     11535        93  DOPC      C26            26.9959832481       30.7800738168       10.8952968419  MEMB      93              0.0000000000
     11536        93  DOPC      H6R            26.7274966964       30.0915839456       10.0625577590  MEMB      93              0.0000000000
     11537        93  DOPC      H6S            28.0343386678       31.1376326440       10.7132341611  MEMB      93              0.0000000000
     11538        93  DOPC      C27            26.0387928734       31.9857126580       10.8467426501  MEMB      93              0.0000000000
     11539        93  DOPC      H7R            26.5013918362       32.8212069932       11.4087824299  MEMB      93              0.0000000000
     11540        93  DOPC      H7S            25.0863679631       31.7284506132       11.3610946919  MEMB      93              0.0000000000
     11541        93  DOPC      C28            25.7243824834       32.4588081091        9.4123750374  MEMB      93              0.0000000000
     11542        93  DOPC      H8R            25.0847439879       33.3666717250        9.4387195668  MEMB      93              0.0000000000
     11543        93  DOPC      H8S            25.1215872988       31.6608230075        8.9231258680  MEMB      93              0.0000000000
     11544        93  DOPC      C29            26.9948084287       32.6976138106        8.6378461198  MEMB      93              0.0000000000
     11545        93  DOPC      H9R            27.2438727537       31.8992193742        7.9245200338  MEMB      93              0.0000000000
     11546        93  DOPC      C210           27.8201501095       33.7551494584        8.7179183726  MEMB      93              0.0000000000
     11547        93  DOPC      H10R           28.7831609628       33.6925491110        8.1925751326  MEMB      93              0.0000000000
     11548        93  DOPC      C211           27.7014410252       34.9766401050        9.5901889010  MEMB      93              0.0000000000
     11549        93  DOPC      H11R           28.7214072223       35.2964319541        9.9003853508  MEMB      93              0.0000000000
     11550        93  DOPC      H11S           27.1854576348       34.7198160004       10.5448359657  MEMB      93              0.0000000000
     11551        93  DOPC      C212           26.9437245574       36.1863548944        8.9750909950  MEMB      93              0.0000000000
     11552        93  DOPC      H12R           27.2831136003       37.0932820015        9.5255824631  MEMB      93              0.0000000000
     11553        93  DOPC      H12S           25.8746590270       36.0368099582        9.2358649503  MEMB      93              0.0000000000
     11554        93  DOPC      C213           26.9816097524       36.4314398057        7.4275602522  MEMB      93              0.0000000000
     11555        93  DOPC      H13R           26.3717544786       37.3160446478        7.2208095139  MEMB      93              0.0000000000
     11556        93  DOPC      H13S           26.4484789265       35.5922521138        6.9444519341  MEMB      93              0.0000000000
     11557        93  DOPC      C214           28.4165115834       36.5708321899        6.8662728124  MEMB      93              0.0000000000
     11558        93  DOPC      H14R           28.6602062642       35.5043152381        7.0076219877  MEMB      93              0.0000000000
     11559        93  DOPC      H14S           28.9228712152       37.2571101838        7.5682921832  MEMB      93              0.0000000000
     11560        93  DOPC      C215           28.9987222121       36.8893834841        5.4310072886  MEMB      93              0.0000000000
     11561        93  DOPC      H15R           29.6658019803       37.7715467501        5.4795740243  MEMB      93              0.0000000000
     11562        93  DOPC      H15S           28.2747184141       37.0665127581        4.6376279809  MEMB      93              0.0000000000
     11563        93  DOPC      C216           29.7434142480       35.7457231120        4.7359686841  MEMB      93              0.0000000000
     11564        93  DOPC      H16R           29.1240527019       34.8612237250        4.9871510700  MEMB      93              0.0000000000
     11565        93  DOPC      H16S           30.7566827762       35.6456465653        5.1565172109  MEMB      93              0.0000000000
     11566        93  DOPC      C217           29.8803204291       35.8071747206        3.1992736550  MEMB      93              0.0000000000
     11567        93  DOPC      H17R           28.8642264765       35.8082236756        2.7475064747  MEMB      93              0.0000000000
     11568        93  DOPC      H17S           30.3860768397       34.8713119669        2.8642917510  MEMB      93              0.0000000000
     11569        93  DOPC      C218           30.6722725169       36.9905934010        2.6459809539  MEMB      93              0.0000000000
     11570        93  DOPC      H18R           30.8392836899       36.8801991239        1.5536843240  MEMB      93              0.0000000000
     11571        93  DOPC      H18S           31.6647145398       37.0781285554        3.1392792811  MEMB      93              0.0000000000
     11572        93  DOPC      H18T           30.1017133322       37.9276490283        2.8108487136  MEMB      93              0.0000000000
     11573        93  DOPC      C33            29.8964206496       35.5012641844       14.3964457562  MEMB      93              0.0000000000
     11574        93  DOPC      H3X            29.7091887513       35.6519631934       15.4826166736  MEMB      93              0.0000000000
     11575        93  DOPC      H3Y            29.6670783524       36.4600282563       13.8798931609  MEMB      93              0.0000000000
     11576        93  DOPC      C34            31.3847697261       35.1770489991       14.1960770594  MEMB      93              0.0000000000
     11577        93  DOPC      H4X            31.6435048924       34.2486661144       14.7513914541  MEMB      93              0.0000000000
     11578        93  DOPC      H4Y            32.0118810322       36.0038088853       14.6033648406  MEMB      93              0.0000000000
     11579        93  DOPC      C35            31.7688835049       34.9726203689       12.7285179346  MEMB      93              0.0000000000
     11580        93  DOPC      H5X            31.2304421414       34.1132782244       12.2713993258  MEMB      93              0.0000000000
     11581        93  DOPC      H5Y            32.8530146263       34.7255090667       12.6967483891  MEMB      93              0.0000000000
     11582        93  DOPC      C36            31.5679856852       36.2158408965       11.8614784239  MEMB      93              0.0000000000
     11583        93  DOPC      H6X            30.5021435093       36.3164902495       11.5616807455  MEMB      93              0.0000000000
     11584        93  DOPC      H6Y            31.8570729724       37.1296195258       12.4311154629  MEMB      93              0.0000000000
     11585        93  DOPC      C37            32.4924447575       36.1137580301       10.6516104052  MEMB      93              0.0000000000
     11586        93  DOPC      H7X            33.5092222232       36.2683508673       11.0402725557  MEMB      93              0.0000000000
     11587        93  DOPC      H7Y            32.4635381651       35.0784108855       10.2343642407  MEMB      93              0.0000000000
     11588        93  DOPC      C38            32.2633206525       37.1712578031        9.5865858820  MEMB      93              0.0000000000
     11589        93  DOPC      H8X            33.1555001171       37.2905664559        8.9349524481  MEMB      93              0.0000000000
     11590        93  DOPC      H8Y            32.0444212473       38.1605176348       10.0437847512  MEMB      93              0.0000000000
     11591        93  DOPC      C39            31.1298477012       36.6567201830        8.7822388138  MEMB      93              0.0000000000
     11592        93  DOPC      H9X            30.1396269788       37.0183470483        9.0991441975  MEMB      93              0.0000000000
     11593        93  DOPC      C310           31.2424821573       35.7776206241        7.7789698718  MEMB      93              0.0000000000
     11594        93  DOPC      H10X           30.3892289033       35.4789548342        7.2289672584  MEMB      93              0.0000000000
     11595        93  DOPC      C311           32.3847785679       35.0719496984        7.1686751685  MEMB      93              0.0000000000
     11596        93  DOPC      H11X           33.2432783421       35.2729882534        7.8143212765  MEMB      93              0.0000000000
     11597        93  DOPC      H11Y           32.6000652777       35.4897828326        6.1584450726  MEMB      93              0.0000000000
     11598        93  DOPC      C312           32.1056203900       33.5461495636        7.0426539944  MEMB      93              0.0000000000
     11599        93  DOPC      H12X           31.9193447065       33.1441514886        8.0614008368  MEMB      93              0.0000000000
     11600        93  DOPC      H12Y           33.0202388364       33.0561180927        6.6423507752  MEMB      93              0.0000000000
     11601        93  DOPC      C313           30.9194462839       33.1729819602        6.1188850565  MEMB      93              0.0000000000
     11602        93  DOPC      H13X           29.9964862133       33.6484873248        6.5097412165  MEMB      93              0.0000000000
     11603        93  DOPC      H13Y           31.1296065579       33.5761804249        5.1050299523  MEMB      93              0.0000000000
     11604        93  DOPC      C314           30.5600043665       31.6876491483        5.9515299317  MEMB      93              0.0000000000
     11605        93  DOPC      H14X           31.4222589769       31.1495035428        5.5083534637  MEMB      93              0.0000000000
     11606        93  DOPC      H14Y           30.3733061044       31.2480054591        6.9574852602  MEMB      93              0.0000000000
     11607        93  DOPC      C315           29.2911660874       31.4649162297        5.0815136458  MEMB      93              0.0000000000
     11608        93  DOPC      H15X           28.4085797245       31.8124728621        5.6665089546  MEMB      93              0.0000000000
     11609        93  DOPC      H15Y           29.1680956361       30.3758828908        4.8972348821  MEMB      93              0.0000000000
     11610        93  DOPC      C316           29.2549337272       32.2029107848        3.7256643380  MEMB      93              0.0000000000
     11611        93  DOPC      H16X           29.0966677882       33.2742070057        3.9270349533  MEMB      93              0.0000000000
     11612        93  DOPC      H16Y           30.2247054025       32.1214961598        3.1937944814  MEMB      93              0.0000000000
     11613        93  DOPC      C317           28.1010645189       31.8050559968        2.7892001949  MEMB      93              0.0000000000
     11614        93  DOPC      H17X           27.1855041367       31.5845283552        3.3811595467  MEMB      93              0.0000000000
     11615        93  DOPC      H17Y           27.8671864152       32.6827619404        2.1392751219  MEMB      93              0.0000000000
     11616        93  DOPC      C318           28.4304722930       30.6443034325        1.8591362365  MEMB      93              0.0000000000
     11617        93  DOPC      H18X           27.6082396351       30.4809338691        1.1288092547  MEMB      93              0.0000000000
     11618        93  DOPC      H18Y           29.3582073131       30.8631863323        1.2845670539  MEMB      93              0.0000000000
     11619        93  DOPC      H18Z           28.5875810143       29.7067790813        2.4330578822  MEMB      93              0.0000000000
     11620        94  CHL1      C3            -26.3824134567      -35.7857736632       17.4420567361  MEMB      94              0.0000000000
     11621        94  CHL1      H3            -27.0460170095      -36.6787836497       17.3603095322  MEMB      94              0.0000000000
     11622        94  CHL1      O3            -25.9659508134      -35.6448412927       18.7854191170  MEMB      94              0.0000000000
     11623        94  CHL1      H3'           -26.7838617379      -35.6478811044       19.3270573680  MEMB      94              0.0000000000
     11624        94  CHL1      C4            -25.1337170992      -36.0220556995       16.5698403420  MEMB      94              0.0000000000
     11625        94  CHL1      H4A           -24.2892185693      -35.4014296808       16.9340339107  MEMB      94              0.0000000000
     11626        94  CHL1      H4B           -24.8060888735      -37.0724411498       16.7546689909  MEMB      94              0.0000000000
     11627        94  CHL1      C5            -25.3916969692      -35.7512718180       15.1012522961  MEMB      94              0.0000000000
     11628        94  CHL1      C6            -25.1518602169      -36.6595167666       14.1615823828  MEMB      94              0.0000000000
     11629        94  CHL1      H6            -24.7299664142      -37.6261978158       14.4640504574  MEMB      94              0.0000000000
     11630        94  CHL1      C7            -25.3376846549      -36.4071043816       12.6929707906  MEMB      94              0.0000000000
     11631        94  CHL1      H7A           -24.5198125756      -36.8758987738       12.1151705264  MEMB      94              0.0000000000
     11632        94  CHL1      H7B           -26.2968960762      -36.8537865223       12.3514999723  MEMB      94              0.0000000000
     11633        94  CHL1      C8            -25.3154817318      -34.9143325728       12.3325328359  MEMB      94              0.0000000000
     11634        94  CHL1      H8            -24.2802320544      -34.5442425619       12.4988936994  MEMB      94              0.0000000000
     11635        94  CHL1      C14           -25.7078947222      -34.7042176603       10.8672277125  MEMB      94              0.0000000000
     11636        94  CHL1      H14           -26.7690941126      -35.0547795056       10.7884745066  MEMB      94              0.0000000000
     11637        94  CHL1      C15           -24.9463064189      -35.4462238718        9.7429620108  MEMB      94              0.0000000000
     11638        94  CHL1      H15A          -23.8634094699      -35.4521818041        9.9796488062  MEMB      94              0.0000000000
     11639        94  CHL1      H15B          -25.3092430823      -36.4890673630        9.6783681963  MEMB      94              0.0000000000
     11640        94  CHL1      C16           -25.2230648466      -34.6164999296        8.4503666333  MEMB      94              0.0000000000
     11641        94  CHL1      H16A          -24.2706883304      -34.3159727730        7.9764615019  MEMB      94              0.0000000000
     11642        94  CHL1      H16B          -25.8047039611      -35.2318032835        7.7305713000  MEMB      94              0.0000000000
     11643        94  CHL1      C17           -26.0695614681      -33.3948248229        8.9476351818  MEMB      94              0.0000000000
     11644        94  CHL1      H17           -27.0960124982      -33.8360254491        8.9025584223  MEMB      94              0.0000000000
     11645        94  CHL1      C13           -25.6935517781      -33.2570618575       10.4329560715  MEMB      94              0.0000000000
     11646        94  CHL1      C18           -24.2412037331      -32.6958530287       10.4872434015  MEMB      94              0.0000000000
     11647        94  CHL1      H18A          -23.8032738254      -32.8076231198       11.4938782158  MEMB      94              0.0000000000
     11648        94  CHL1      H18B          -23.5622932497      -33.1956740456        9.7700717581  MEMB      94              0.0000000000
     11649        94  CHL1      H18C          -24.2381312730      -31.6109557582       10.2614194936  MEMB      94              0.0000000000
     11650        94  CHL1      C12           -26.6505369643      -32.4632354244       11.3404798752  MEMB      94              0.0000000000
     11651        94  CHL1      H12A          -26.6025141713      -31.3877270704       11.0690758482  MEMB      94              0.0000000000
     11652        94  CHL1      H12B          -27.6877237919      -32.8255990793       11.1723057965  MEMB      94              0.0000000000
     11653        94  CHL1      C11           -26.2994688977      -32.6419837551       12.8222403836  MEMB      94              0.0000000000
     11654        94  CHL1      H11A          -25.2979616769      -32.1838050535       12.9670887396  MEMB      94              0.0000000000
     11655        94  CHL1      H11B          -27.0247270776      -32.0784686168       13.4432653874  MEMB      94              0.0000000000
     11656        94  CHL1      C9            -26.2588927577      -34.1349220338       13.2505118263  MEMB      94              0.0000000000
     11657        94  CHL1      H9            -27.2777458731      -34.5440286749       13.0462117647  MEMB      94              0.0000000000
     11658        94  CHL1      C10           -25.9994803302      -34.3900343807       14.7680900844  MEMB      94              0.0000000000
     11659        94  CHL1      C19           -25.0353996832      -33.3113612494       15.2852080541  MEMB      94              0.0000000000
     11660        94  CHL1      H19A          -24.1122934529      -33.2836829170       14.6678605855  MEMB      94              0.0000000000
     11661        94  CHL1      H19B          -25.5386566876      -32.3211021644       15.2498726353  MEMB      94              0.0000000000
     11662        94  CHL1      H19C          -24.7464934073      -33.4507551630       16.3424642550  MEMB      94              0.0000000000
     11663        94  CHL1      C1            -27.3411716981      -34.3501098935       15.5446894666  MEMB      94              0.0000000000
     11664        94  CHL1      H1A           -27.8379613581      -33.3745656339       15.3525013409  MEMB      94              0.0000000000
     11665        94  CHL1      H1B           -28.0074286853      -35.1524231960       15.1569604317  MEMB      94              0.0000000000
     11666        94  CHL1      C2            -27.1832539556      -34.5276671269       17.0659406482  MEMB      94              0.0000000000
     11667        94  CHL1      H2A           -28.1858920732      -34.5853293741       17.5413375576  MEMB      94              0.0000000000
     11668        94  CHL1      H2B           -26.6851751073      -33.6190282898       17.4731154368  MEMB      94              0.0000000000
     11669        94  CHL1      C20           -26.1551918473      -32.0205431224        8.2322490951  MEMB      94              0.0000000000
     11670        94  CHL1      H20           -25.3879912588      -31.3212018284        8.6368711501  MEMB      94              0.0000000000
     11671        94  CHL1      C21           -27.5750308168      -31.5198194317        8.6002232639  MEMB      94              0.0000000000
     11672        94  CHL1      H21A          -27.5274374510      -30.5689172623        9.1642255271  MEMB      94              0.0000000000
     11673        94  CHL1      H21B          -28.1959954201      -32.2420754822        9.1612610561  MEMB      94              0.0000000000
     11674        94  CHL1      H21C          -28.1769880550      -31.3912806156        7.6934331887  MEMB      94              0.0000000000
     11675        94  CHL1      C22           -25.9817686163      -31.9238059853        6.6959929182  MEMB      94              0.0000000000
     11676        94  CHL1      H22A          -25.0232479867      -32.3664098100        6.3619364097  MEMB      94              0.0000000000
     11677        94  CHL1      H22B          -26.7960978847      -32.5613663915        6.2905652735  MEMB      94              0.0000000000
     11678        94  CHL1      C23           -26.0888013194      -30.4998024353        6.0267540086  MEMB      94              0.0000000000
     11679        94  CHL1      H23A          -25.8838693455      -29.6738487750        6.7224137177  MEMB      94              0.0000000000
     11680        94  CHL1      H23B          -25.2897635829      -30.4505206301        5.2618106604  MEMB      94              0.0000000000
     11681        94  CHL1      C24           -27.4761417421      -30.3497597104        5.3363470664  MEMB      94              0.0000000000
     11682        94  CHL1      H24A          -27.5579932528      -31.3609129567        4.9776072509  MEMB      94              0.0000000000
     11683        94  CHL1      H24B          -28.2110812280      -30.2427089188        6.1175462753  MEMB      94              0.0000000000
     11684        94  CHL1      C25           -27.8346072648      -29.5785527455        4.0258094546  MEMB      94              0.0000000000
     11685        94  CHL1      H25           -28.4014899200      -28.6732107415        4.2760269264  MEMB      94              0.0000000000
     11686        94  CHL1      C26           -26.6115981616      -29.0815196622        3.3709777875  MEMB      94              0.0000000000
     11687        94  CHL1      H26A          -26.1615045547      -29.7981730759        2.6642079527  MEMB      94              0.0000000000
     11688        94  CHL1      H26B          -27.1289136719      -28.3234740263        2.7778692246  MEMB      94              0.0000000000
     11689        94  CHL1      H26C          -25.8685082970      -28.6787284937        4.0877729505  MEMB      94              0.0000000000
     11690        94  CHL1      C27           -28.6646945795      -30.1800677997        2.8426553355  MEMB      94              0.0000000000
     11691        94  CHL1      H27A          -28.0358939578      -30.8143109685        2.1898102759  MEMB      94              0.0000000000
     11692        94  CHL1      H27B          -29.5782652825      -30.7454194108        3.0962371427  MEMB      94              0.0000000000
     11693        94  CHL1      H27C          -28.9661056701      -29.3421333232        2.1785374105  MEMB      94              0.0000000000
     11694        95  23SM      N              30.1379796135      -33.2695588869       28.0047194515  MEMB      95              0.0000000000
     11695        95  23SM      C15            29.5920527979      -31.9496371097       28.4565117006  MEMB      95              0.0000000000
     11696        95  23SM      H15A           28.7333995225      -32.0534958500       29.1091611378  MEMB      95              0.0000000000
     11697        95  23SM      H15B           29.3384533782      -31.3481317535       27.5885428455  MEMB      95              0.0000000000
     11698        95  23SM      H15C           30.3052465227      -31.3513410822       29.0083279536  MEMB      95              0.0000000000
     11699        95  23SM      C14            31.2014563536      -33.0572724506       26.9675761429  MEMB      95              0.0000000000
     11700        95  23SM      H14A           31.3466643966      -33.9839704191       26.4122572771  MEMB      95              0.0000000000
     11701        95  23SM      H14B           32.1657123933      -32.7499409408       27.3432568668  MEMB      95              0.0000000000
     11702        95  23SM      H14C           30.8461285153      -32.3621808518       26.2030859799  MEMB      95              0.0000000000
     11703        95  23SM      C13            30.6995502664      -34.0266891475       29.1604346157  MEMB      95              0.0000000000
     11704        95  23SM      H13A           31.2336198894      -34.9042027128       28.7900473099  MEMB      95              0.0000000000
     11705        95  23SM      H13B           29.9258413292      -34.3977266796       29.8297772149  MEMB      95              0.0000000000
     11706        95  23SM      H13C           31.3981704278      -33.4315761126       29.7305721363  MEMB      95              0.0000000000
     11707        95  23SM      C12            29.0322643363      -34.1028655047       27.3487529147  MEMB      95              0.0000000000
     11708        95  23SM      H12A           28.3358910124      -34.4406511970       28.1010582973  MEMB      95              0.0000000000
     11709        95  23SM      H12B           29.4789602451      -35.0164525700       26.9301700074  MEMB      95              0.0000000000
     11710        95  23SM      C11            28.2439609594      -33.4493718449       26.1868085201  MEMB      95              0.0000000000
     11711        95  23SM      H11A           27.9541225313      -32.4120604307       26.4575660612  MEMB      95              0.0000000000
     11712        95  23SM      H11B           27.2845960441      -33.9941234675       26.0092562411  MEMB      95              0.0000000000
     11713        95  23SM      P              29.2098213736      -34.7628332974       24.1824819723  MEMB      95              0.0000000000
     11714        95  23SM      O13            29.5142062326      -35.8736354768       25.1195124425  MEMB      95              0.0000000000
     11715        95  23SM      O14            28.0159961735      -34.9106088059       23.3128314518  MEMB      95              0.0000000000
     11716        95  23SM      O11            30.5145984098      -34.5687273761       23.3252351024  MEMB      95              0.0000000000
     11717        95  23SM      O12            29.0479782679      -33.4204833214       25.0105308387  MEMB      95              0.0000000000
     11718        95  23SM      C1S            30.9861735481      -33.3145353906       22.8328770712  MEMB      95              0.0000000000
     11719        95  23SM      H1S            32.0976578691      -33.3139541634       22.8661323383  MEMB      95              0.0000000000
     11720        95  23SM      H1T            30.6703149903      -32.4558687092       23.4698710940  MEMB      95              0.0000000000
     11721        95  23SM      NF             29.1677796018      -32.6842423518       21.3539798906  MEMB      95              0.0000000000
     11722        95  23SM      HNF            28.5036222955      -33.4063758670       21.5490246672  MEMB      95              0.0000000000
     11723        95  23SM      C2S            30.5601677767      -33.0810265689       21.3479686334  MEMB      95              0.0000000000
     11724        95  23SM      H2S            31.1777289426      -32.2710677385       20.9176197706  MEMB      95              0.0000000000
     11725        95  23SM      C3S            30.8629510831      -34.3756247832       20.5284593062  MEMB      95              0.0000000000
     11726        95  23SM      H3S            30.3834350113      -35.2536862460       21.0017105064  MEMB      95              0.0000000000
     11727        95  23SM      O3             32.2666938568      -34.6559254874       20.4473024721  MEMB      95              0.0000000000
     11728        95  23SM      HO3            32.6697407003      -34.2017069439       21.1891586301  MEMB      95              0.0000000000
     11729        95  23SM      C4S            30.3775193777      -34.2935250759       19.1004374820  MEMB      95              0.0000000000
     11730        95  23SM      H4S            29.4582974338      -34.8639669658       18.9173306127  MEMB      95              0.0000000000
     11731        95  23SM      C5S            30.9510964056      -33.6564787274       18.0583547916  MEMB      95              0.0000000000
     11732        95  23SM      H5S            31.8855993600      -33.0883913345       18.2061492275  MEMB      95              0.0000000000
     11733        95  23SM      C6S            30.3956978378      -33.6674966870       16.6598822822  MEMB      95              0.0000000000
     11734        95  23SM      H6S            29.7744923835      -32.7701110474       16.4679178013  MEMB      95              0.0000000000
     11735        95  23SM      H6T            29.7611898260      -34.5695569446       16.4930574526  MEMB      95              0.0000000000
     11736        95  23SM      C7S            31.5684957090      -33.7373182218       15.6567034099  MEMB      95              0.0000000000
     11737        95  23SM      H7S            32.1312268642      -34.6900157637       15.7839647682  MEMB      95              0.0000000000
     11738        95  23SM      H7T            32.2721170850      -32.9026728968       15.8869331800  MEMB      95              0.0000000000
     11739        95  23SM      C8S            31.1605687414      -33.6023248163       14.1764666260  MEMB      95              0.0000000000
     11740        95  23SM      H8S            30.1760531163      -33.0869620208       14.1364853840  MEMB      95              0.0000000000
     11741        95  23SM      H8T            31.0319488378      -34.5975876268       13.6975188278  MEMB      95              0.0000000000
     11742        95  23SM      C9S            32.1797536659      -32.7422113768       13.4140242697  MEMB      95              0.0000000000
     11743        95  23SM      H9S            33.1748657715      -33.2306582171       13.3613539951  MEMB      95              0.0000000000
     11744        95  23SM      H9T            32.3023262622      -31.8368581911       14.0614616731  MEMB      95              0.0000000000
     11745        95  23SM      C10S           31.7265391868      -32.2572466404       12.0226650375  MEMB      95              0.0000000000
     11746        95  23SM      H10S           31.9377524389      -31.1671029290       11.9721778645  MEMB      95              0.0000000000
     11747        95  23SM      H10T           30.6269546513      -32.3645694812       11.9181464723  MEMB      95              0.0000000000
     11748        95  23SM      C11S           32.3671734125      -32.8890793106       10.7722767476  MEMB      95              0.0000000000
     11749        95  23SM      H11S           32.0122955742      -33.9439476272       10.7151925471  MEMB      95              0.0000000000
     11750        95  23SM      H11T           33.4769687835      -32.9096461428       10.8106031186  MEMB      95              0.0000000000
     11751        95  23SM      C12S           31.9315308188      -32.0936297469        9.5186148371  MEMB      95              0.0000000000
     11752        95  23SM      H12S           32.7188097046      -31.4314989840        9.1271055986  MEMB      95              0.0000000000
     11753        95  23SM      H12T           31.1604612101      -31.3824882950        9.8686700603  MEMB      95              0.0000000000
     11754        95  23SM      C13S           31.3448746293      -32.9793619891        8.4147947721  MEMB      95              0.0000000000
     11755        95  23SM      H13S           30.7225688704      -33.6816029072        8.9785036258  MEMB      95              0.0000000000
     11756        95  23SM      H13T           32.1589755706      -33.5289785676        7.8903321753  MEMB      95              0.0000000000
     11757        95  23SM      C14S           30.4322408227      -32.2954819721        7.3900167953  MEMB      95              0.0000000000
     11758        95  23SM      H14S           31.1144976283      -31.8759446187        6.6517055759  MEMB      95              0.0000000000
     11759        95  23SM      H14T           29.8942968643      -31.4584815706        7.8725540043  MEMB      95              0.0000000000
     11760        95  23SM      C15S           29.4468617416      -33.1020350497        6.5239850594  MEMB      95              0.0000000000
     11761        95  23SM      H15S           28.6853679161      -33.6379427599        7.1279210173  MEMB      95              0.0000000000
     11762        95  23SM      H15T           29.9739033280      -33.8490042725        5.9004972289  MEMB      95              0.0000000000
     11763        95  23SM      C16S           28.7645340087      -32.1413599616        5.5373832222  MEMB      95              0.0000000000
     11764        95  23SM      H16S           29.5421745853      -31.4834830879        5.0911361202  MEMB      95              0.0000000000
     11765        95  23SM      H16T           28.1087747395      -31.4729755299        6.1272278590  MEMB      95              0.0000000000
     11766        95  23SM      C17S           28.0209372674      -32.8619851078        4.4031163218  MEMB      95              0.0000000000
     11767        95  23SM      H17S           27.2590947707      -33.5421641116        4.8392613379  MEMB      95              0.0000000000
     11768        95  23SM      H17T           28.7522010496      -33.4968415339        3.8490705379  MEMB      95              0.0000000000
     11769        95  23SM      C18S           27.3435333854      -31.9279435708        3.3988171140  MEMB      95              0.0000000000
     11770        95  23SM      H18S           28.0937214476      -31.2435817991        2.9503379756  MEMB      95              0.0000000000
     11771        95  23SM      H18T           26.5648814276      -31.2867771208        3.8415483711  MEMB      95              0.0000000000
     11772        95  23SM      H18U           26.8532321481      -32.5130899463        2.5918327318  MEMB      95              0.0000000000
     11773        95  23SM      C1F            28.9253885781      -31.4362359855       21.7466241556  MEMB      95              0.0000000000
     11774        95  23SM      OF             29.8505915459      -30.6867725488       22.0198640826  MEMB      95              0.0000000000
     11775        95  23SM      C2F            27.5223006180      -30.9786019227       21.8496866611  MEMB      95              0.0000000000
     11776        95  23SM      H2F            27.3532582488      -30.4848234784       22.8307014564  MEMB      95              0.0000000000
     11777        95  23SM      H2G            26.8220508897      -31.8308357598       21.7453397834  MEMB      95              0.0000000000
     11778        95  23SM      C3F            27.3418696113      -29.9618432668       20.7180213003  MEMB      95              0.0000000000
     11779        95  23SM      H3F            27.9913267246      -29.0784399582       20.9135447565  MEMB      95              0.0000000000
     11780        95  23SM      H3G            26.3106588305      -29.5792658907       20.7423056411  MEMB      95              0.0000000000
     11781        95  23SM      C4F            27.6931023587      -30.5240289744       19.3277617813  MEMB      95              0.0000000000
     11782        95  23SM      H4F            28.7970946500      -30.6076553322       19.2006634694  MEMB      95              0.0000000000
     11783        95  23SM      H4G            27.3283398265      -29.8059786348       18.5733871761  MEMB      95              0.0000000000
     11784        95  23SM      C5F            27.0243566022      -31.8461737939       18.9702605902  MEMB      95              0.0000000000
     11785        95  23SM      H5F            26.0635445541      -31.8977872017       19.5206816989  MEMB      95              0.0000000000
     11786        95  23SM      H5G            27.6402223469      -32.7146648850       19.2830720274  MEMB      95              0.0000000000
     11787        95  23SM      C6F            26.7666954422      -31.9126114863       17.4687379106  MEMB      95              0.0000000000
     11788        95  23SM      H6F            27.7307635201      -31.7869533564       16.9286738932  MEMB      95              0.0000000000
     11789        95  23SM      H6G            26.1019454129      -31.0659857790       17.1812421276  MEMB      95              0.0000000000
     11790        95  23SM      C7F            26.1390625806      -33.2200443177       17.0013448159  MEMB      95              0.0000000000
     11791        95  23SM      H7F            25.1075837989      -33.3188134086       17.3980504163  MEMB      95              0.0000000000
     11792        95  23SM      H7G            26.7139121770      -34.0857516815       17.3968072429  MEMB      95              0.0000000000
     11793        95  23SM      C8F            26.1074825224      -33.2551869301       15.4708576303  MEMB      95              0.0000000000
     11794        95  23SM      H8F            26.1253956157      -32.2200224191       15.0691220440  MEMB      95              0.0000000000
     11795        95  23SM      H8G            25.1552440120      -33.7002742612       15.1118306919  MEMB      95              0.0000000000
     11796        95  23SM      C9F            27.2921926997      -34.0356039445       14.8942444001  MEMB      95              0.0000000000
     11797        95  23SM      H9F            27.7613106349      -34.6493736799       15.6903105055  MEMB      95              0.0000000000
     11798        95  23SM      H9G            28.0643424316      -33.3033884649       14.5682539921  MEMB      95              0.0000000000
     11799        95  23SM      C10F           26.8998135515      -34.9625017204       13.7296459496  MEMB      95              0.0000000000
     11800        95  23SM      H10F           25.9349513750      -35.4706670106       13.9343389198  MEMB      95              0.0000000000
     11801        95  23SM      H10G           27.6886725005      -35.7403848514       13.6212971856  MEMB      95              0.0000000000
     11802        95  23SM      C11F           26.8630815745      -34.1155080993       12.4635056482  MEMB      95              0.0000000000
     11803        95  23SM      H11F           27.9138638360      -33.7960230789       12.3681965524  MEMB      95              0.0000000000
     11804        95  23SM      H11G           26.1880542647      -33.2480837380       12.6683504702  MEMB      95              0.0000000000
     11805        95  23SM      C12F           26.4650052560      -34.7202290372       11.1185422359  MEMB      95              0.0000000000
     11806        95  23SM      H12F           26.1699295558      -33.8829021137       10.4403953440  MEMB      95              0.0000000000
     11807        95  23SM      H12G           25.5624606162      -35.3436932607       11.2780768408  MEMB      95              0.0000000000
     11808        95  23SM      C13F           27.5150791734      -35.5604722013       10.3591016842  MEMB      95              0.0000000000
     11809        95  23SM      H13F           27.2006238713      -35.5396429815        9.2952858464  MEMB      95              0.0000000000
     11810        95  23SM      H13G           27.4610738694      -36.5985781591       10.7456844977  MEMB      95              0.0000000000
     11811        95  23SM      C14F           28.9896639101      -35.1480250135       10.2689852429  MEMB      95              0.0000000000
     11812        95  23SM      H14F           29.3844211496      -34.8879280803       11.2747607484  MEMB      95              0.0000000000
     11813        95  23SM      H14G           29.0447462273      -34.2425290758        9.6440708176  MEMB      95              0.0000000000
     11814        95  23SM      C15F           29.8349701014      -36.2770575753        9.6105091853  MEMB      95              0.0000000000
     11815        95  23SM      H15F           29.2063343312      -37.1940714995        9.6238647705  MEMB      95              0.0000000000
     11816        95  23SM      H15G           30.7152302303      -36.4598828626       10.2618609001  MEMB      95              0.0000000000
     11817        95  23SM      C16F           30.3081617726      -36.0506664768        8.1450087476  MEMB      95              0.0000000000
     11818        95  23SM      H16F           31.1151216077      -35.3116790496        8.1122191447  MEMB      95              0.0000000000
     11819        95  23SM      H16G           29.4548267419      -35.7133652934        7.5230399801  MEMB      95              0.0000000000
     11820        95  23SM      C17F           31.0384410178      -37.2094669941        7.4577569396  MEMB      95              0.0000000000
     11821        95  23SM      H17F           30.3677915183      -38.0822704166        7.5535874076  MEMB      95              0.0000000000
     11822        95  23SM      H17G           31.9836730963      -37.4120345013        8.0106869008  MEMB      95              0.0000000000
     11823        95  23SM      C18F           31.3469051227      -37.0583795102        5.9422166034  MEMB      95              0.0000000000
     11824        95  23SM      H18F           30.3675389275      -37.0442796741        5.4147724697  MEMB      95              0.0000000000
     11825        95  23SM      H18G           31.8862212914      -37.9857301874        5.6380105013  MEMB      95              0.0000000000
     11826        95  23SM      C19F           32.1412405066      -35.8333680659        5.4277297461  MEMB      95              0.0000000000
     11827        95  23SM      H19F           32.9033328891      -35.5168970761        6.1683539435  MEMB      95              0.0000000000
     11828        95  23SM      H19G           31.4299435754      -34.9944538481        5.3035550140  MEMB      95              0.0000000000
     11829        95  23SM      C20F           32.8015742263      -36.0040980598        4.0325287515  MEMB      95              0.0000000000
     11830        95  23SM      H20F           33.6282997304      -36.7454905743        4.0947861692  MEMB      95              0.0000000000
     11831        95  23SM      H20G           33.2477739463      -35.0313209660        3.7265677108  MEMB      95              0.0000000000
     11832        95  23SM      C21F           31.8080872821      -36.4341098566        2.9382522326  MEMB      95              0.0000000000
     11833        95  23SM      H21F           31.0419953502      -35.6454426642        2.7766962472  MEMB      95              0.0000000000
     11834        95  23SM      H21G           31.2826314644      -37.3231230135        3.3367868672  MEMB      95              0.0000000000
     11835        95  23SM      C22F           32.4364555658      -36.8406671076        1.5926210841  MEMB      95              0.0000000000
     11836        95  23SM      H22F           31.7067923360      -37.4950142646        1.0573930122  MEMB      95              0.0000000000
     11837        95  23SM      H22G           33.3419002697      -37.4620289663        1.7734657664  MEMB      95              0.0000000000
     11838        95  23SM      C23F           32.7786307026      -35.6842975155        0.6529185515  MEMB      95              0.0000000000
     11839        95  23SM      H23F           33.2035792015      -36.0862956192       -0.2772051385  MEMB      95              0.0000000000
     11840        95  23SM      H23G           33.5243481667      -34.9904749815        1.0933501504  MEMB      95              0.0000000000
     11841        95  23SM      H23H           31.8704049993      -35.1150892752        0.3657501921  MEMB      95              0.0000000000
     11842        96  DOPE      N              36.7354842210       31.2729720220       20.7998407184  MEMB      96              0.0000000000
     11843        96  DOPE      HN1            36.8922721690       31.0349409040       19.7749436643  MEMB      96              0.0000000000
     11844        96  DOPE      HN2            35.7455697260       31.5640116859       20.9246830145  MEMB      96              0.0000000000
     11845        96  DOPE      HN3            37.3998330747       32.0123703653       21.0981045216  MEMB      96              0.0000000000
     11846        96  DOPE      C12            36.9655930000       29.9222957763       21.4282623297  MEMB      96              0.0000000000
     11847        96  DOPE      H12A           37.1127723644       30.0637470557       22.5110153208  MEMB      96              0.0000000000
     11848        96  DOPE      H12B           37.8993277065       29.5047192357       20.9942307922  MEMB      96              0.0000000000
     11849        96  DOPE      C11            35.7863820029       28.9618842755       21.1222469283  MEMB      96              0.0000000000
     11850        96  DOPE      H11A           35.0112941998       29.1352206347       21.9006702705  MEMB      96              0.0000000000
     11851        96  DOPE      H11B           36.1317621231       27.9075216863       21.2379488793  MEMB      96              0.0000000000
     11852        96  DOPE      P              35.9910514700       29.0012458408       18.5061964696  MEMB      96              0.0000000000
     11853        96  DOPE      O13            37.1154935415       29.9626680193       18.5494202516  MEMB      96              0.0000000000
     11854        96  DOPE      O14            35.0339999209       29.1202476854       17.3998341554  MEMB      96              0.0000000000
     11855        96  DOPE      O11            36.5193795804       27.5219449887       18.6789542651  MEMB      96              0.0000000000
     11856        96  DOPE      O12            35.1581449728       29.1675497189       19.8526388847  MEMB      96              0.0000000000
     11857        96  DOPE      C1             35.6447518456       26.4300674541       18.3875322491  MEMB      96              0.0000000000
     11858        96  DOPE      HA             34.5624223044       26.7111494892       18.3524668867  MEMB      96              0.0000000000
     11859        96  DOPE      HB             35.7797047003       25.6671579354       19.1690563367  MEMB      96              0.0000000000
     11860        96  DOPE      C2             36.0695326259       25.7834999332       17.0599756071  MEMB      96              0.0000000000
     11861        96  DOPE      HS             37.1340141765       25.4834435752       17.2209316538  MEMB      96              0.0000000000
     11862        96  DOPE      O21            35.9284135054       26.8121688924       16.0603689633  MEMB      96              0.0000000000
     11863        96  DOPE      C21            36.9327521121       26.8430327227       15.2331537537  MEMB      96              0.0000000000
     11864        96  DOPE      O22            37.7177340566       25.9196164281       15.0642525451  MEMB      96              0.0000000000
     11865        96  DOPE      C22            37.0346208016       28.2127261226       14.5802242132  MEMB      96              0.0000000000
     11866        96  DOPE      H2R            38.1071880884       28.4560002770       14.4818343858  MEMB      96              0.0000000000
     11867        96  DOPE      H2S            36.5662072839       28.9944304511       15.2140184018  MEMB      96              0.0000000000
     11868        96  DOPE      C3             35.2460375089       24.5102188793       16.7036595751  MEMB      96              0.0000000000
     11869        96  DOPE      HX             34.8008843516       24.0911211988       17.6329573602  MEMB      96              0.0000000000
     11870        96  DOPE      HY             35.9229863050       23.7260010589       16.2926553364  MEMB      96              0.0000000000
     11871        96  DOPE      O31            34.1870838457       24.8485295359       15.8005051734  MEMB      96              0.0000000000
     11872        96  DOPE      C31            34.5126936768       24.8419665387       14.5205497911  MEMB      96              0.0000000000
     11873        96  DOPE      O32            35.4315583727       24.2169967466       14.0176229200  MEMB      96              0.0000000000
     11874        96  DOPE      C32            33.4924283892       25.7388748631       13.8267800147  MEMB      96              0.0000000000
     11875        96  DOPE      H2X            32.4990973289       25.5165850608       14.2782082611  MEMB      96              0.0000000000
     11876        96  DOPE      H2Y            33.7426141529       26.7873594966       14.0835392501  MEMB      96              0.0000000000
     11877        96  DOPE      C23            36.4507324723       28.1503811566       13.1835642223  MEMB      96              0.0000000000
     11878        96  DOPE      H3R            35.3427374647       28.0954391096       13.2637490014  MEMB      96              0.0000000000
     11879        96  DOPE      H3S            36.8216264925       27.2226405352       12.6810454318  MEMB      96              0.0000000000
     11880        96  DOPE      C24            36.8567251233       29.3194912096       12.2948033751  MEMB      96              0.0000000000
     11881        96  DOPE      H4R            37.9433240317       29.2231603554       12.0806171127  MEMB      96              0.0000000000
     11882        96  DOPE      H4S            36.6777119738       30.2844848156       12.8150722444  MEMB      96              0.0000000000
     11883        96  DOPE      C25            36.0230977915       29.2251012697       11.0255963606  MEMB      96              0.0000000000
     11884        96  DOPE      H5R            34.9622738599       29.4593347384       11.2664570088  MEMB      96              0.0000000000
     11885        96  DOPE      H5S            36.0621043054       28.1644985357       10.7202181854  MEMB      96              0.0000000000
     11886        96  DOPE      C26            36.4826175801       30.0119818450        9.8083522968  MEMB      96              0.0000000000
     11887        96  DOPE      H6R            37.4539595902       29.6204075300        9.4410810454  MEMB      96              0.0000000000
     11888        96  DOPE      H6S            36.6386623551       31.0708460485       10.0646918446  MEMB      96              0.0000000000
     11889        96  DOPE      C27            35.4280304078       29.8779763291        8.7074457277  MEMB      96              0.0000000000
     11890        96  DOPE      H7R            34.4825531209       30.3456758736        9.0637236761  MEMB      96              0.0000000000
     11891        96  DOPE      H7S            35.2010396131       28.7981176431        8.5911121599  MEMB      96              0.0000000000
     11892        96  DOPE      C28            35.8631116851       30.5304799719        7.3828890095  MEMB      96              0.0000000000
     11893        96  DOPE      H8R            36.7127411954       31.2114407987        7.5897367186  MEMB      96              0.0000000000
     11894        96  DOPE      H8S            35.0053036739       31.1430645469        7.0245941057  MEMB      96              0.0000000000
     11895        96  DOPE      C29            36.2756104687       29.5279073706        6.3446592216  MEMB      96              0.0000000000
     11896        96  DOPE      H9R            37.0138283384       28.7951695426        6.6943844960  MEMB      96              0.0000000000
     11897        96  DOPE      C210           35.9944559619       29.5641222497        5.0358408546  MEMB      96              0.0000000000
     11898        96  DOPE      H10R           36.2283323058       28.6998194393        4.4128666000  MEMB      96              0.0000000000
     11899        96  DOPE      C211           35.2157430871       30.6384699652        4.3505610266  MEMB      96              0.0000000000
     11900        96  DOPE      H11R           35.5984792842       30.7563905263        3.3119082907  MEMB      96              0.0000000000
     11901        96  DOPE      H11S           35.4449903640       31.5678190641        4.8852982855  MEMB      96              0.0000000000
     11902        96  DOPE      C212           33.6980115754       30.5095915616        4.2975407164  MEMB      96              0.0000000000
     11903        96  DOPE      H12R           33.2384691812       31.5206399394        4.1745533439  MEMB      96              0.0000000000
     11904        96  DOPE      H12S           33.3157953202       30.0820411685        5.2490640507  MEMB      96              0.0000000000
     11905        96  DOPE      C213           33.3014457953       29.6546995096        3.1058125331  MEMB      96              0.0000000000
     11906        96  DOPE      H13R           33.8766019957       28.7032592546        3.1428207734  MEMB      96              0.0000000000
     11907        96  DOPE      H13S           33.5742594460       30.1848500735        2.1637861975  MEMB      96              0.0000000000
     11908        96  DOPE      C214           31.8219107517       29.3241801461        3.0842665677  MEMB      96              0.0000000000
     11909        96  DOPE      H14R           31.2174376006       30.2455213389        3.2332189916  MEMB      96              0.0000000000
     11910        96  DOPE      H14S           31.5826439641       28.6297302883        3.9195065953  MEMB      96              0.0000000000
     11911        96  DOPE      C215           31.4176599154       28.6964528377        1.7576189384  MEMB      96              0.0000000000
     11912        96  DOPE      H15R           31.3178830911       29.4980140349        0.9934349617  MEMB      96              0.0000000000
     11913        96  DOPE      H15S           30.4034754202       28.2640828433        1.9294199111  MEMB      96              0.0000000000
     11914        96  DOPE      C216           32.3230890197       27.5652792335        1.2318169691  MEMB      96              0.0000000000
     11915        96  DOPE      H16R           31.6496791821       26.8145384374        0.7542550941  MEMB      96              0.0000000000
     11916        96  DOPE      H16S           32.8194963106       27.0632249563        2.0891770445  MEMB      96              0.0000000000
     11917        96  DOPE      C217           33.3684824287       27.9121656245        0.1507695754  MEMB      96              0.0000000000
     11918        96  DOPE      H17R           33.9292545492       26.9953159008       -0.0966216683  MEMB      96              0.0000000000
     11919        96  DOPE      H17S           34.1363164116       28.6067650080        0.5416239386  MEMB      96              0.0000000000
     11920        96  DOPE      C218           32.7948902818       28.3977086162       -1.1763620196  MEMB      96              0.0000000000
     11921        96  DOPE      H18R           32.1473418187       27.6184095379       -1.6364898486  MEMB      96              0.0000000000
     11922        96  DOPE      H18S           33.5993627564       28.6556079184       -1.8945515121  MEMB      96              0.0000000000
     11923        96  DOPE      H18T           32.1843574520       29.2990127276       -1.0013447093  MEMB      96              0.0000000000
     11924        96  DOPE      C33            33.4430827193       25.4997819813       12.3129473994  MEMB      96              0.0000000000
     11925        96  DOPE      H3X            32.5989098883       26.0899654888       11.8854578165  MEMB      96              0.0000000000
     11926        96  DOPE      H3Y            33.2465640572       24.4274444759       12.0997295923  MEMB      96              0.0000000000
     11927        96  DOPE      C34            34.7168525898       25.9348574270       11.5908099336  MEMB      96              0.0000000000
     11928        96  DOPE      H4X            34.7483035212       27.0317746818       11.6762306287  MEMB      96              0.0000000000
     11929        96  DOPE      H4Y            35.6329743327       25.5006735189       12.0479605909  MEMB      96              0.0000000000
     11930        96  DOPE      C35            34.6756017088       25.5776344850       10.1148132035  MEMB      96              0.0000000000
     11931        96  DOPE      H5X            33.8570983019       26.1729069887        9.6595570740  MEMB      96              0.0000000000
     11932        96  DOPE      H5Y            34.4221031307       24.4982452945       10.0492072216  MEMB      96              0.0000000000
     11933        96  DOPE      C36            35.9771429646       25.7876335521        9.3387695392  MEMB      96              0.0000000000
     11934        96  DOPE      H6X            36.8002626068       25.2299580705        9.8299874045  MEMB      96              0.0000000000
     11935        96  DOPE      H6Y            36.2945320338       26.8473030588        9.3301497293  MEMB      96              0.0000000000
     11936        96  DOPE      C37            35.8175244612       25.3484555005        7.8808905625  MEMB      96              0.0000000000
     11937        96  DOPE      H7X            36.8192476675       25.1098466278        7.4691540555  MEMB      96              0.0000000000
     11938        96  DOPE      H7Y            35.1578764327       24.4602659853        7.8004674472  MEMB      96              0.0000000000
     11939        96  DOPE      C38            35.2899378327       26.5159605546        7.0609060600  MEMB      96              0.0000000000
     11940        96  DOPE      H8X            36.1949308399       27.1264795733        6.9300242803  MEMB      96              0.0000000000
     11941        96  DOPE      H8Y            34.5740904130       27.0925001196        7.6865892522  MEMB      96              0.0000000000
     11942        96  DOPE      C39            34.6432699951       26.3067417272        5.7329810477  MEMB      96              0.0000000000
     11943        96  DOPE      H9X            33.6430982126       26.7666277433        5.6723718732  MEMB      96              0.0000000000
     11944        96  DOPE      C310           35.0857622482       25.7080810108        4.6212180640  MEMB      96              0.0000000000
     11945        96  DOPE      H10X           34.4231173006       25.8463572838        3.7673054257  MEMB      96              0.0000000000
     11946        96  DOPE      C311           36.3636924444       25.0156916707        4.2288920501  MEMB      96              0.0000000000
     11947        96  DOPE      H11X           37.1919281898       25.2540497779        4.9292635790  MEMB      96              0.0000000000
     11948        96  DOPE      H11Y           36.2287072518       23.9124400257        4.2316783199  MEMB      96              0.0000000000
     11949        96  DOPE      C312           36.7284831326       25.4490239390        2.7836449273  MEMB      96              0.0000000000
     11950        96  DOPE      H12X           36.0089423276       25.0177852091        2.0528354837  MEMB      96              0.0000000000
     11951        96  DOPE      H12Y           37.7185659782       25.0322573873        2.5177001059  MEMB      96              0.0000000000
     11952        96  DOPE      C313           36.7343408964       26.9819752960        2.6633223759  MEMB      96              0.0000000000
     11953        96  DOPE      H13X           35.6797618583       27.3434783499        2.7119489724  MEMB      96              0.0000000000
     11954        96  DOPE      H13Y           37.2971522331       27.3542708203        3.5484831076  MEMB      96              0.0000000000
     11955        96  DOPE      C314           37.3504920963       27.6533956028        1.4336508654  MEMB      96              0.0000000000
     11956        96  DOPE      H14X           38.4546541244       27.6514047937        1.5123280593  MEMB      96              0.0000000000
     11957        96  DOPE      H14Y           37.0277147675       28.7226528648        1.4537809739  MEMB      96              0.0000000000
     11958        96  DOPE      C315           36.9520126113       27.0539354897        0.0876893170  MEMB      96              0.0000000000
     11959        96  DOPE      H15X           35.8667200745       26.8634571277        0.0727768799  MEMB      96              0.0000000000
     11960        96  DOPE      H15Y           37.4455506676       26.0689048442       -0.0467748320  MEMB      96              0.0000000000
     11961        96  DOPE      C316           37.3440213273       27.9930673126       -1.0598368299  MEMB      96              0.0000000000
     11962        96  DOPE      H16X           38.3991999742       28.3086420330       -0.8931971573  MEMB      96              0.0000000000
     11963        96  DOPE      H16Y           36.7154548619       28.9105524330       -1.0304284160  MEMB      96              0.0000000000
     11964        96  DOPE      C317           37.2596253750       27.3323491216       -2.4404342261  MEMB      96              0.0000000000
     11965        96  DOPE      H17X           37.7622090252       27.9972903766       -3.1793579912  MEMB      96              0.0000000000
     11966        96  DOPE      H17Y           37.8356964289       26.3794448134       -2.4003808576  MEMB      96              0.0000000000
     11967        96  DOPE      C318           35.8345342250       27.0460623786       -2.9209987275  MEMB      96              0.0000000000
     11968        96  DOPE      H18X           35.2844377325       26.4313156842       -2.1765699297  MEMB      96              0.0000000000
     11969        96  DOPE      H18Y           35.2831095100       27.9980739592       -3.0754969051  MEMB      96              0.0000000000
     11970        96  DOPE      H18Z           35.8515451055       26.4958763327       -3.8857944280  MEMB      96              0.0000000000
     11971        97  DOPE      N              31.9736749640      -30.2154818629       19.7583069331  MEMB      97              0.0000000000
     11972        97  DOPE      HN1            31.8839886271      -29.2163888712       20.0968174743  MEMB      97              0.0000000000
     11973        97  DOPE      HN2            31.8161513236      -30.2133565098       18.7162348001  MEMB      97              0.0000000000
     11974        97  DOPE      HN3            31.1981568249      -30.6863078606       20.2657011984  MEMB      97              0.0000000000
     11975        97  DOPE      C12            33.3647021240      -30.6739594572       20.0878786284  MEMB      97              0.0000000000
     11976        97  DOPE      H12A           33.5119410681      -31.6479599472       19.5767452269  MEMB      97              0.0000000000
     11977        97  DOPE      H12B           33.3960267184      -30.8147349144       21.1877807723  MEMB      97              0.0000000000
     11978        97  DOPE      C11            34.4502503737      -29.6513647173       19.6462895196  MEMB      97              0.0000000000
     11979        97  DOPE      H11A           34.1229681897      -28.6512972650       20.0052173978  MEMB      97              0.0000000000
     11980        97  DOPE      H11B           34.4975648565      -29.6334975559       18.5297385085  MEMB      97              0.0000000000
     11981        97  DOPE      P              37.1023269377      -29.8957590199       19.4661634228  MEMB      97              0.0000000000
     11982        97  DOPE      O13            38.1883411206      -30.1698351501       20.4421887946  MEMB      97              0.0000000000
     11983        97  DOPE      O14            37.2464053264      -28.7368327011       18.5811077813  MEMB      97              0.0000000000
     11984        97  DOPE      O11            36.7736207163      -31.1618975225       18.5849166786  MEMB      97              0.0000000000
     11985        97  DOPE      O12            35.7238211696      -29.8900720953       20.2461762753  MEMB      97              0.0000000000
     11986        97  DOPE      C1             37.6916362638      -32.2114777771       18.3283734182  MEMB      97              0.0000000000
     11987        97  DOPE      HA             37.1754376206      -33.1627732678       18.5723809892  MEMB      97              0.0000000000
     11988        97  DOPE      HB             38.5911835266      -32.1632424113       18.9861068997  MEMB      97              0.0000000000
     11989        97  DOPE      C2             38.1525693059      -32.2832240666       16.8323010256  MEMB      97              0.0000000000
     11990        97  DOPE      HS             38.9368011320      -33.0718372286       16.7744992636  MEMB      97              0.0000000000
     11991        97  DOPE      O21            38.6848031674      -31.0431645298       16.3433807609  MEMB      97              0.0000000000
     11992        97  DOPE      C21            39.8186922813      -30.6203137853       16.8921767722  MEMB      97              0.0000000000
     11993        97  DOPE      O22            40.4636861055      -31.2256071274       17.7328527933  MEMB      97              0.0000000000
     11994        97  DOPE      C22            40.3106904219      -29.3275446133       16.2562488911  MEMB      97              0.0000000000
     11995        97  DOPE      H2R            41.0729582242      -29.4986786009       15.4807655313  MEMB      97              0.0000000000
     11996        97  DOPE      H2S            40.7769867741      -28.7131594223       17.0506388724  MEMB      97              0.0000000000
     11997        97  DOPE      C3             36.9902757316      -32.7371661162       15.8800614870  MEMB      97              0.0000000000
     11998        97  DOPE      HX             36.4192342830      -33.4947026712       16.4614224063  MEMB      97              0.0000000000
     11999        97  DOPE      HY             37.4231068199      -33.2458710964       14.9883945612  MEMB      97              0.0000000000
     12000        97  DOPE      O31            36.0660686781      -31.6912158069       15.5340895630  MEMB      97              0.0000000000
     12001        97  DOPE      C31            36.0197663714      -31.2156818336       14.2952035532  MEMB      97              0.0000000000
     12002        97  DOPE      O32            36.6330953497      -31.6402852301       13.3314187459  MEMB      97              0.0000000000
     12003        97  DOPE      C32            35.0871627760      -29.9903902065       14.3223986513  MEMB      97              0.0000000000
     12004        97  DOPE      H2X            34.5554336058      -30.0422622348       15.2952835028  MEMB      97              0.0000000000
     12005        97  DOPE      H2Y            35.7091330149      -29.0747737916       14.3272240243  MEMB      97              0.0000000000
     12006        97  DOPE      C23            39.2403156374      -28.5601514887       15.5068473164  MEMB      97              0.0000000000
     12007        97  DOPE      H3R            39.6375818710      -27.5299722206       15.3392631833  MEMB      97              0.0000000000
     12008        97  DOPE      H3S            38.2959112498      -28.4649004958       16.0847715347  MEMB      97              0.0000000000
     12009        97  DOPE      C24            39.0269142801      -29.1230695799       14.1227074897  MEMB      97              0.0000000000
     12010        97  DOPE      H4R            38.4076897594      -30.0434750535       14.1690796651  MEMB      97              0.0000000000
     12011        97  DOPE      H4S            39.9797737381      -29.3912179639       13.6186062676  MEMB      97              0.0000000000
     12012        97  DOPE      C25            38.3418767307      -28.0372238106       13.3404497361  MEMB      97              0.0000000000
     12013        97  DOPE      H5R            39.0532685844      -27.2198293737       13.0960853974  MEMB      97              0.0000000000
     12014        97  DOPE      H5S            37.5232745227      -27.6318243400       13.9783535148  MEMB      97              0.0000000000
     12015        97  DOPE      C26            37.7367326240      -28.5975394010       12.0978438001  MEMB      97              0.0000000000
     12016        97  DOPE      H6R            36.9617675624      -27.8999009631       11.7230719895  MEMB      97              0.0000000000
     12017        97  DOPE      H6S            37.2207299508      -29.5380117977       12.3739097692  MEMB      97              0.0000000000
     12018        97  DOPE      C27            38.7705364774      -28.8825338772       11.0238040870  MEMB      97              0.0000000000
     12019        97  DOPE      H7R            39.5040909944      -29.6471929823       11.3602591164  MEMB      97              0.0000000000
     12020        97  DOPE      H7S            39.3289949316      -27.9544092392       10.7775574817  MEMB      97              0.0000000000
     12021        97  DOPE      C28            38.0139455706      -29.3581361815        9.8081241392  MEMB      97              0.0000000000
     12022        97  DOPE      H8R            38.6541538121      -29.2564898169        8.9114017408  MEMB      97              0.0000000000
     12023        97  DOPE      H8S            37.2188567763      -28.6077047406        9.6616789627  MEMB      97              0.0000000000
     12024        97  DOPE      C29            37.4675714253      -30.7502506321       10.0533662103  MEMB      97              0.0000000000
     12025        97  DOPE      H9R            36.7059626950      -30.8839935252       10.8408759047  MEMB      97              0.0000000000
     12026        97  DOPE      C210           37.9277071580      -31.8208131059        9.4250842390  MEMB      97              0.0000000000
     12027        97  DOPE      H10R           37.5642560408      -32.8314173907        9.6696671359  MEMB      97              0.0000000000
     12028        97  DOPE      C211           39.0266017826      -31.7109213986        8.4322021180  MEMB      97              0.0000000000
     12029        97  DOPE      H11R           39.5464762671      -32.6900237252        8.4595219440  MEMB      97              0.0000000000
     12030        97  DOPE      H11S           39.7827611150      -30.9432122246        8.7104038421  MEMB      97              0.0000000000
     12031        97  DOPE      C212           38.5930064246      -31.4559952971        6.9896278927  MEMB      97              0.0000000000
     12032        97  DOPE      H12R           37.6180057053      -31.9259785457        6.7325717928  MEMB      97              0.0000000000
     12033        97  DOPE      H12S           39.4057701063      -32.0127621944        6.5058902454  MEMB      97              0.0000000000
     12034        97  DOPE      C213           38.7459856435      -30.0682902642        6.3507570696  MEMB      97              0.0000000000
     12035        97  DOPE      H13R           39.7888701633      -29.7011951548        6.4486597997  MEMB      97              0.0000000000
     12036        97  DOPE      H13S           38.1115357744      -29.3283825853        6.8605976130  MEMB      97              0.0000000000
     12037        97  DOPE      C214           38.3380404565      -30.1001004566        4.8637851848  MEMB      97              0.0000000000
     12038        97  DOPE      H14R           37.7073747682      -29.2081884318        4.6906546369  MEMB      97              0.0000000000
     12039        97  DOPE      H14S           37.6916278315      -30.9880854725        4.6850603285  MEMB      97              0.0000000000
     12040        97  DOPE      C215           39.5307942385      -30.0485776194        3.8884565813  MEMB      97              0.0000000000
     12041        97  DOPE      H15R           40.3986629734      -30.5484262800        4.3521945301  MEMB      97              0.0000000000
     12042        97  DOPE      H15S           39.8097220763      -28.9816025096        3.7547401515  MEMB      97              0.0000000000
     12043        97  DOPE      C216           39.3054171121      -30.6939661089        2.5069507430  MEMB      97              0.0000000000
     12044        97  DOPE      H16R           39.0503771082      -29.8892566746        1.7870140820  MEMB      97              0.0000000000
     12045        97  DOPE      H16S           38.4261754711      -31.3726543198        2.5635288270  MEMB      97              0.0000000000
     12046        97  DOPE      C217           40.5211138371      -31.4753183215        1.9508649890  MEMB      97              0.0000000000
     12047        97  DOPE      H17R           40.9421300774      -32.1791120298        2.6913361430  MEMB      97              0.0000000000
     12048        97  DOPE      H17S           41.3757794547      -30.7911798175        1.7911032591  MEMB      97              0.0000000000
     12049        97  DOPE      C218           40.2100813070      -32.2782228550        0.6806587322  MEMB      97              0.0000000000
     12050        97  DOPE      H18R           40.9494748645      -33.0983945664        0.5557513094  MEMB      97              0.0000000000
     12051        97  DOPE      H18S           40.2495327764      -31.6591324307       -0.2255134918  MEMB      97              0.0000000000
     12052        97  DOPE      H18T           39.1929202228      -32.7126446887        0.6921743108  MEMB      97              0.0000000000
     12053        97  DOPE      C33            34.0207228001      -29.9226491243       13.1993318041  MEMB      97              0.0000000000
     12054        97  DOPE      H3X            33.0407573568      -29.6022712299       13.6217076437  MEMB      97              0.0000000000
     12055        97  DOPE      H3Y            33.8826724335      -30.9390696333       12.7827013984  MEMB      97              0.0000000000
     12056        97  DOPE      C34            34.3720709492      -28.9723593711       12.0447509539  MEMB      97              0.0000000000
     12057        97  DOPE      H4X            34.5148040989      -27.9440048559       12.4415271030  MEMB      97              0.0000000000
     12058        97  DOPE      H4Y            35.3320525866      -29.3434083617       11.6439321712  MEMB      97              0.0000000000
     12059        97  DOPE      C35            33.3475517444      -29.0285766680       10.8995604995  MEMB      97              0.0000000000
     12060        97  DOPE      H5X            32.3621929555      -28.6455734670       11.2460590865  MEMB      97              0.0000000000
     12061        97  DOPE      H5Y            33.2195865937      -30.1025150993       10.6623696436  MEMB      97              0.0000000000
     12062        97  DOPE      C36            33.6991833870      -28.3693041306        9.5400580050  MEMB      97              0.0000000000
     12063        97  DOPE      H6X            33.9114779595      -27.3083404734        9.6749747605  MEMB      97              0.0000000000
     12064        97  DOPE      H6Y            32.7401374390      -28.4224632947        9.0059005406  MEMB      97              0.0000000000
     12065        97  DOPE      C37            34.7313268875      -29.1584186356        8.7022666373  MEMB      97              0.0000000000
     12066        97  DOPE      H7X            35.4934858143      -29.3721681480        9.4549182879  MEMB      97              0.0000000000
     12067        97  DOPE      H7Y            34.3006202781      -30.1579359203        8.5102868996  MEMB      97              0.0000000000
     12068        97  DOPE      C38            35.4965681853      -28.7023390860        7.3733198578  MEMB      97              0.0000000000
     12069        97  DOPE      H8X            35.5683987584      -29.6195416908        6.7495477368  MEMB      97              0.0000000000
     12070        97  DOPE      H8Y            36.5268037686      -28.6546439930        7.7428681980  MEMB      97              0.0000000000
     12071        97  DOPE      C39            35.4110558879      -27.4764026911        6.4567862688  MEMB      97              0.0000000000
     12072        97  DOPE      H9X            35.4486189164      -26.5707158301        7.0517245159  MEMB      97              0.0000000000
     12073        97  DOPE      C310           34.9814520399      -27.2491875071        5.1814118894  MEMB      97              0.0000000000
     12074        97  DOPE      H10X           35.1874398752      -26.2519955645        4.7469787424  MEMB      97              0.0000000000
     12075        97  DOPE      C311           34.3974195898      -28.2533667946        4.2114989115  MEMB      97              0.0000000000
     12076        97  DOPE      H11X           34.7879963944      -29.2456615037        4.5000749637  MEMB      97              0.0000000000
     12077        97  DOPE      H11Y           33.2859055624      -28.2514752697        4.3185152527  MEMB      97              0.0000000000
     12078        97  DOPE      C312           34.6923246554      -28.3017586947        2.7044638183  MEMB      97              0.0000000000
     12079        97  DOPE      H12X           33.9987623685      -27.6655210055        2.1127841770  MEMB      97              0.0000000000
     12080        97  DOPE      H12Y           34.5364798921      -29.3501808381        2.3595300889  MEMB      97              0.0000000000
     12081        97  DOPE      C313           36.1397954711      -27.9386762456        2.4507304038  MEMB      97              0.0000000000
     12082        97  DOPE      H13X           36.1415258605      -26.8402215302        2.4920683789  MEMB      97              0.0000000000
     12083        97  DOPE      H13Y           36.7848221693      -28.2863264119        3.2740727475  MEMB      97              0.0000000000
     12084        97  DOPE      C314           36.7137553533      -28.4565969471        1.1376128874  MEMB      97              0.0000000000
     12085        97  DOPE      H14X           36.8294718277      -29.5629643257        1.1874775269  MEMB      97              0.0000000000
     12086        97  DOPE      H14Y           37.7304864787      -28.0180118383        1.0408466516  MEMB      97              0.0000000000
     12087        97  DOPE      C315           35.8528630701      -28.0909207173       -0.0736394367  MEMB      97              0.0000000000
     12088        97  DOPE      H15X           34.9241483921      -28.7033815750       -0.0253936587  MEMB      97              0.0000000000
     12089        97  DOPE      H15Y           36.3857923910      -28.3607718824       -1.0126250673  MEMB      97              0.0000000000
     12090        97  DOPE      C316           35.4480586831      -26.6118116142       -0.0964561609  MEMB      97              0.0000000000
     12091        97  DOPE      H16X           34.9723484054      -26.3018604278        0.8547856128  MEMB      97              0.0000000000
     12092        97  DOPE      H16Y           34.7041841143      -26.4405722724       -0.8917050673  MEMB      97              0.0000000000
     12093        97  DOPE      C317           36.5986445362      -25.6608779174       -0.3640214623  MEMB      97              0.0000000000
     12094        97  DOPE      H17X           37.4295939926      -25.8585435280        0.3187623652  MEMB      97              0.0000000000
     12095        97  DOPE      H17Y           37.0202855465      -25.9383621484       -1.3405147808  MEMB      97              0.0000000000
     12096        97  DOPE      C318           36.1621180122      -24.1952823612       -0.2631890021  MEMB      97              0.0000000000
     12097        97  DOPE      H18X           35.3898099675      -23.9576896365       -1.0261448574  MEMB      97              0.0000000000
     12098        97  DOPE      H18Y           35.7195106013      -24.0109548972        0.7411069803  MEMB      97              0.0000000000
     12099        97  DOPE      H18Z           37.0168148287      -23.5009944367       -0.3954833787  MEMB      97              0.0000000000
     12100        98  23SM      N             -32.4399827775      -33.1591003356       27.3151120455  MEMB      98              0.0000000000
     12101        98  23SM      C15           -31.3836890900      -32.7009732511       28.2740091673  MEMB      98              0.0000000000
     12102        98  23SM      H15A          -30.8225318286      -33.5591827667       28.6297036520  MEMB      98              0.0000000000
     12103        98  23SM      H15B          -31.8086556737      -32.2171228463       29.1538108396  MEMB      98              0.0000000000
     12104        98  23SM      H15C          -30.6928419226      -32.0128503271       27.7992076548  MEMB      98              0.0000000000
     12105        98  23SM      C14           -31.8604818210      -33.9471835594       26.1608817288  MEMB      98              0.0000000000
     12106        98  23SM      H14A          -31.2347470709      -33.3617941881       25.5105403896  MEMB      98              0.0000000000
     12107        98  23SM      H14B          -32.6793738472      -34.2931234079       25.5128771248  MEMB      98              0.0000000000
     12108        98  23SM      H14C          -31.3276284286      -34.8387836417       26.4790423627  MEMB      98              0.0000000000
     12109        98  23SM      C13           -33.3470652953      -34.1458558500       27.9861735302  MEMB      98              0.0000000000
     12110        98  23SM      H13A          -32.8041313345      -35.0786674332       28.1385733972  MEMB      98              0.0000000000
     12111        98  23SM      H13B          -34.1831230103      -34.4081589268       27.3327453667  MEMB      98              0.0000000000
     12112        98  23SM      H13C          -33.7366542536      -33.8159742607       28.9322650541  MEMB      98              0.0000000000
     12113        98  23SM      C12           -33.1649141348      -31.9676182539       26.7547216805  MEMB      98              0.0000000000
     12114        98  23SM      H12A          -32.5207749004      -31.5000178915       26.0091524191  MEMB      98              0.0000000000
     12115        98  23SM      H12B          -33.3292847021      -31.2363073084       27.5341527983  MEMB      98              0.0000000000
     12116        98  23SM      C11           -34.5095827827      -32.2475086601       26.0706814085  MEMB      98              0.0000000000
     12117        98  23SM      H11A          -34.7796740255      -31.2938083391       25.5871476032  MEMB      98              0.0000000000
     12118        98  23SM      H11B          -35.2833209775      -32.4931774892       26.8267300303  MEMB      98              0.0000000000
     12119        98  23SM      P             -35.3053784434      -34.5003132799       24.9174371531  MEMB      98              0.0000000000
     12120        98  23SM      O13           -34.4325357629      -35.6568422949       24.7668299686  MEMB      98              0.0000000000
     12121        98  23SM      O14           -36.2444184481      -34.5466208106       26.0638556028  MEMB      98              0.0000000000
     12122        98  23SM      O11           -36.1336883336      -34.2030232880       23.5906196840  MEMB      98              0.0000000000
     12123        98  23SM      O12           -34.3984640502      -33.2275762473       25.0659336244  MEMB      98              0.0000000000
     12124        98  23SM      C1S           -35.4635952299      -33.5439507060       22.5060624061  MEMB      98              0.0000000000
     12125        98  23SM      H1S           -34.6238236249      -32.8900252560       22.8230813743  MEMB      98              0.0000000000
     12126        98  23SM      H1T           -36.1740577345      -32.8483897403       22.0065810590  MEMB      98              0.0000000000
     12127        98  23SM      NF            -33.7059492785      -34.2359859747       20.8695187437  MEMB      98              0.0000000000
     12128        98  23SM      HNF           -33.6555569614      -34.3195397885       19.8831033822  MEMB      98              0.0000000000
     12129        98  23SM      C2S           -34.9706711071      -34.5999805914       21.4853192499  MEMB      98              0.0000000000
     12130        98  23SM      H2S           -34.7977700467      -35.5712244993       21.9985615647  MEMB      98              0.0000000000
     12131        98  23SM      C3S           -36.1454477350      -34.7553552819       20.4645199826  MEMB      98              0.0000000000
     12132        98  23SM      H3S           -36.4482810999      -33.7586345879       20.0809549045  MEMB      98              0.0000000000
     12133        98  23SM      O3            -37.3052298478      -35.2856499274       21.1217114277  MEMB      98              0.0000000000
     12134        98  23SM      HO3           -37.3208219929      -34.7950639260       21.9570238917  MEMB      98              0.0000000000
     12135        98  23SM      C4S           -35.7391858436      -35.6304729800       19.2861962237  MEMB      98              0.0000000000
     12136        98  23SM      H4S           -35.4621780644      -36.6595716313       19.5498567287  MEMB      98              0.0000000000
     12137        98  23SM      C5S           -35.7013393337      -35.2575654392       17.9778868524  MEMB      98              0.0000000000
     12138        98  23SM      H5S           -35.9811049808      -34.2254328797       17.6933942625  MEMB      98              0.0000000000
     12139        98  23SM      C6S           -35.2891516800      -36.1503046997       16.8199590879  MEMB      98              0.0000000000
     12140        98  23SM      H6S           -36.1925603913      -36.6165101569       16.3629642581  MEMB      98              0.0000000000
     12141        98  23SM      H6T           -34.6394944868      -36.9827313576       17.1680305609  MEMB      98              0.0000000000
     12142        98  23SM      C7S           -34.5411726553      -35.4275967523       15.6690244364  MEMB      98              0.0000000000
     12143        98  23SM      H7S           -33.6109584643      -34.9730523667       16.0675633441  MEMB      98              0.0000000000
     12144        98  23SM      H7T           -35.2050715185      -34.6410577082       15.2642155468  MEMB      98              0.0000000000
     12145        98  23SM      C8S           -34.1418410957      -36.3083751347       14.4711575192  MEMB      98              0.0000000000
     12146        98  23SM      H8S           -34.9887613238      -36.9956532258       14.2537232945  MEMB      98              0.0000000000
     12147        98  23SM      H8T           -33.2466303957      -36.8929899899       14.7682023660  MEMB      98              0.0000000000
     12148        98  23SM      C9S           -33.8023329259      -35.5696740425       13.1582929684  MEMB      98              0.0000000000
     12149        98  23SM      H9S           -33.0321555993      -34.7939183712       13.3544968604  MEMB      98              0.0000000000
     12150        98  23SM      H9T           -34.7171859541      -35.0595759355       12.7862061886  MEMB      98              0.0000000000
     12151        98  23SM      C10S          -33.2584266941      -36.5155882859       12.0650254579  MEMB      98              0.0000000000
     12152        98  23SM      H10S          -33.8803815945      -37.4354938952       12.0253250528  MEMB      98              0.0000000000
     12153        98  23SM      H10T          -32.2206941289      -36.8021846836       12.3467415534  MEMB      98              0.0000000000
     12154        98  23SM      C11S          -33.2070269474      -35.8937854370       10.6609829774  MEMB      98              0.0000000000
     12155        98  23SM      H11S          -32.6661294938      -34.9305205276       10.7586876541  MEMB      98              0.0000000000
     12156        98  23SM      H11T          -34.2387894296      -35.7139419966       10.2817395909  MEMB      98              0.0000000000
     12157        98  23SM      C12S          -32.4021321111      -36.6786906145        9.6227368287  MEMB      98              0.0000000000
     12158        98  23SM      H12S          -32.0158781034      -37.5959683682       10.1236507711  MEMB      98              0.0000000000
     12159        98  23SM      H12T          -31.5255049680      -36.0857896247        9.2846649915  MEMB      98              0.0000000000
     12160        98  23SM      C13S          -33.2062073264      -37.1150635501        8.3970626859  MEMB      98              0.0000000000
     12161        98  23SM      H13S          -34.2458495467      -37.3823302327        8.6812748213  MEMB      98              0.0000000000
     12162        98  23SM      H13T          -32.7013191798      -38.0437956779        8.0367992259  MEMB      98              0.0000000000
     12163        98  23SM      C14S          -33.2263626812      -36.1811879180        7.1858412360  MEMB      98              0.0000000000
     12164        98  23SM      H14S          -32.2758713290      -35.6100523735        7.1169846028  MEMB      98              0.0000000000
     12165        98  23SM      H14T          -34.0629537067      -35.4551436191        7.2849658012  MEMB      98              0.0000000000
     12166        98  23SM      C15S          -33.3849462200      -37.0576465869        5.9330042170  MEMB      98              0.0000000000
     12167        98  23SM      H15S          -34.3026008918      -37.6754558068        6.0694566163  MEMB      98              0.0000000000
     12168        98  23SM      H15T          -32.5119272819      -37.7403534530        5.8573045641  MEMB      98              0.0000000000
     12169        98  23SM      C16S          -33.5622241821      -36.3221108121        4.6122441895  MEMB      98              0.0000000000
     12170        98  23SM      H16S          -32.8004319960      -35.5228682548        4.4765470948  MEMB      98              0.0000000000
     12171        98  23SM      H16T          -34.5703470609      -35.8894067459        4.6898968222  MEMB      98              0.0000000000
     12172        98  23SM      C17S          -33.6125823142      -37.2598879693        3.4018890408  MEMB      98              0.0000000000
     12173        98  23SM      H17S          -34.3636178484      -38.0569877681        3.6110036671  MEMB      98              0.0000000000
     12174        98  23SM      H17T          -32.6187307197      -37.7443204437        3.2865998684  MEMB      98              0.0000000000
     12175        98  23SM      C18S          -34.0051623697      -36.5666776043        2.0969397247  MEMB      98              0.0000000000
     12176        98  23SM      H18S          -33.6269242412      -37.1440176345        1.2261696149  MEMB      98              0.0000000000
     12177        98  23SM      H18T          -33.6036040416      -35.5313399668        2.0643289064  MEMB      98              0.0000000000
     12178        98  23SM      H18U          -35.1025741721      -36.5002402631        1.9882370515  MEMB      98              0.0000000000
     12179        98  23SM      C1F           -32.5593616793      -33.9586225884       21.5142360386  MEMB      98              0.0000000000
     12180        98  23SM      OF            -32.4515358743      -33.8526566894       22.7226940834  MEMB      98              0.0000000000
     12181        98  23SM      C2F           -31.3569876444      -33.7621610240       20.6574517305  MEMB      98              0.0000000000
     12182        98  23SM      H2F           -31.5924820130      -33.9955610551       19.5981443804  MEMB      98              0.0000000000
     12183        98  23SM      H2G           -30.5574753873      -34.4541002596       21.0036259679  MEMB      98              0.0000000000
     12184        98  23SM      C3F           -30.8763701029      -32.3032434462       20.7996741255  MEMB      98              0.0000000000
     12185        98  23SM      H3F           -30.0514458767      -32.1378525516       20.0710985840  MEMB      98              0.0000000000
     12186        98  23SM      H3G           -30.4391589988      -32.1515653520       21.8156281552  MEMB      98              0.0000000000
     12187        98  23SM      C4F           -31.9869253513      -31.2509442786       20.5786313013  MEMB      98              0.0000000000
     12188        98  23SM      H4F           -31.5169536169      -30.2437647258       20.5880172080  MEMB      98              0.0000000000
     12189        98  23SM      H4G           -32.6971473360      -31.2916226442       21.4357762336  MEMB      98              0.0000000000
     12190        98  23SM      C5F           -32.7703429465      -31.4227452548       19.2639193624  MEMB      98              0.0000000000
     12191        98  23SM      H5F           -33.5708082327      -30.6587869275       19.2031528903  MEMB      98              0.0000000000
     12192        98  23SM      H5G           -33.3176850025      -32.3827384750       19.2358149183  MEMB      98              0.0000000000
     12193        98  23SM      C6F           -31.8546026608      -31.3208914618       18.0349630638  MEMB      98              0.0000000000
     12194        98  23SM      H6F           -31.2284587584      -32.2363623296       17.9539224471  MEMB      98              0.0000000000
     12195        98  23SM      H6G           -31.1656484185      -30.4569718836       18.1802040015  MEMB      98              0.0000000000
     12196        98  23SM      C7F           -32.6350219078      -31.1224209709       16.7330537674  MEMB      98              0.0000000000
     12197        98  23SM      H7F           -31.9449576114      -30.7816328657       15.9288646438  MEMB      98              0.0000000000
     12198        98  23SM      H7G           -33.3698592303      -30.3071540076       16.9206940411  MEMB      98              0.0000000000
     12199        98  23SM      C8F           -33.3656728906      -32.3861699585       16.2476635499  MEMB      98              0.0000000000
     12200        98  23SM      H8F           -33.8495828691      -32.8682153097       17.1305843709  MEMB      98              0.0000000000
     12201        98  23SM      H8G           -32.6514503937      -33.1148913274       15.8123288333  MEMB      98              0.0000000000
     12202        98  23SM      C9F           -34.4907105974      -32.0539820558       15.2520188543  MEMB      98              0.0000000000
     12203        98  23SM      H9F           -34.7843964458      -31.0549388504       15.5613175121  MEMB      98              0.0000000000
     12204        98  23SM      H9G           -35.3821751260      -32.6899563968       15.4117408887  MEMB      98              0.0000000000
     12205        98  23SM      C10F          -34.1351219081      -31.9721370643       13.7595220583  MEMB      98              0.0000000000
     12206        98  23SM      H10F          -33.4066715890      -32.7691718654       13.5188818696  MEMB      98              0.0000000000
     12207        98  23SM      H10G          -33.6329947975      -30.9925784273       13.6048749114  MEMB      98              0.0000000000
     12208        98  23SM      C11F          -35.3544267717      -32.0728503270       12.8076845508  MEMB      98              0.0000000000
     12209        98  23SM      H11F          -36.1104435260      -31.3235142128       13.1247593140  MEMB      98              0.0000000000
     12210        98  23SM      H11G          -35.8281660559      -33.0717304131       12.9035690788  MEMB      98              0.0000000000
     12211        98  23SM      C12F          -35.0337711482      -31.8097744452       11.3142913895  MEMB      98              0.0000000000
     12212        98  23SM      H12F          -34.3302867094      -30.9574857984       11.3124131815  MEMB      98              0.0000000000
     12213        98  23SM      H12G          -35.9631876805      -31.5164568137       10.7786986226  MEMB      98              0.0000000000
     12214        98  23SM      C13F          -34.4171225607      -33.0266960054       10.6082386488  MEMB      98              0.0000000000
     12215        98  23SM      H13F          -35.1667365724      -33.8465654611       10.6130420049  MEMB      98              0.0000000000
     12216        98  23SM      H13G          -33.5909379651      -33.3012144108       11.3016797890  MEMB      98              0.0000000000
     12217        98  23SM      C14F          -33.7918014723      -32.9248852249        9.1854119198  MEMB      98              0.0000000000
     12218        98  23SM      H14F          -33.1964835189      -33.8453678588        8.9976297807  MEMB      98              0.0000000000
     12219        98  23SM      H14G          -33.0869988685      -32.0914524643        9.1172543892  MEMB      98              0.0000000000
     12220        98  23SM      C15F          -34.7290792111      -32.7862955446        7.9852940031  MEMB      98              0.0000000000
     12221        98  23SM      H15F          -35.2843990065      -31.8366615182        8.1050109917  MEMB      98              0.0000000000
     12222        98  23SM      H15G          -35.4422764531      -33.6365511360        7.9694362511  MEMB      98              0.0000000000
     12223        98  23SM      C16F          -34.0060293106      -32.6751928860        6.6309931192  MEMB      98              0.0000000000
     12224        98  23SM      H16F          -33.3297429796      -33.5369860554        6.4601806696  MEMB      98              0.0000000000
     12225        98  23SM      H16G          -33.3775191373      -31.7561443055        6.6745472409  MEMB      98              0.0000000000
     12226        98  23SM      C17F          -34.9996183071      -32.4949288858        5.4652454314  MEMB      98              0.0000000000
     12227        98  23SM      H17F          -34.4533904303      -32.1842757026        4.5464908232  MEMB      98              0.0000000000
     12228        98  23SM      H17G          -35.6308792791      -31.6495310042        5.7808719716  MEMB      98              0.0000000000
     12229        98  23SM      C18F          -35.8551280002      -33.7371742612        5.1266113752  MEMB      98              0.0000000000
     12230        98  23SM      H18F          -35.9118175966      -34.4090665698        6.0113060244  MEMB      98              0.0000000000
     12231        98  23SM      H18G          -35.2751953339      -34.2214422280        4.3167686377  MEMB      98              0.0000000000
     12232        98  23SM      C19F          -37.2715100106      -33.5937093512        4.5148431478  MEMB      98              0.0000000000
     12233        98  23SM      H19F          -37.2368476808      -33.1777501926        3.5062672595  MEMB      98              0.0000000000
     12234        98  23SM      H19G          -37.9529815546      -32.9267476190        5.0407272957  MEMB      98              0.0000000000
     12235        98  23SM      C20F          -38.0483695579      -34.9108120355        4.4055075812  MEMB      98              0.0000000000
     12236        98  23SM      H20F          -39.1254244411      -34.6558158038        4.2771458229  MEMB      98              0.0000000000
     12237        98  23SM      H20G          -37.9261548133      -35.4570993523        5.3647485900  MEMB      98              0.0000000000
     12238        98  23SM      C21F          -37.5921470366      -35.7512028272        3.2081294115  MEMB      98              0.0000000000
     12239        98  23SM      H21F          -37.8874665689      -36.8109209357        3.3567100278  MEMB      98              0.0000000000
     12240        98  23SM      H21G          -36.4848026625      -35.7022730232        3.1878902701  MEMB      98              0.0000000000
     12241        98  23SM      C22F          -38.1722391642      -35.2586700216        1.8701465244  MEMB      98              0.0000000000
     12242        98  23SM      H22F          -38.2592895318      -34.1534874702        1.9172778350  MEMB      98              0.0000000000
     12243        98  23SM      H22G          -39.2093656393      -35.6454090298        1.7649735549  MEMB      98              0.0000000000
     12244        98  23SM      C23F          -37.3574407619      -35.6348941001        0.6274551727  MEMB      98              0.0000000000
     12245        98  23SM      H23F          -36.3239152432      -35.2306603342        0.6930958014  MEMB      98              0.0000000000
     12246        98  23SM      H23G          -37.8271618453      -35.2041235574       -0.2838655030  MEMB      98              0.0000000000
     12247        98  23SM      H23H          -37.2873155275      -36.7356971794        0.5044350041  MEMB      98              0.0000000000
     12248        99  DOPE      N             -31.8169581255       34.8090046173       21.1689704132  MEMB      99              0.0000000000
     12249        99  DOPE      HN1           -30.8781913411       34.9330709291       20.7453721216  MEMB      99              0.0000000000
     12250        99  DOPE      HN2           -31.8036447601       34.0459933165       21.8882455078  MEMB      99              0.0000000000
     12251        99  DOPE      HN3           -32.3863310064       34.4545212098       20.3530029834  MEMB      99              0.0000000000
     12252        99  DOPE      C12           -32.4837010566       36.1045180871       21.5450698601  MEMB      99              0.0000000000
     12253        99  DOPE      H12A          -31.7078658619       36.8278543897       21.8552284453  MEMB      99              0.0000000000
     12254        99  DOPE      H12B          -33.1713170477       35.9056811862       22.3952482832  MEMB      99              0.0000000000
     12255        99  DOPE      C11           -33.3018038802       36.6136515502       20.3495269988  MEMB      99              0.0000000000
     12256        99  DOPE      H11A          -32.6751405994       36.7972583198       19.4458424171  MEMB      99              0.0000000000
     12257        99  DOPE      H11B          -33.7471208435       37.6013252560       20.6353958840  MEMB      99              0.0000000000
     12258        99  DOPE      P             -34.2355060905       34.3937978069       19.1585889237  MEMB      99              0.0000000000
     12259        99  DOPE      O13           -34.7515753844       33.2543205812       19.9422313152  MEMB      99              0.0000000000
     12260        99  DOPE      O14           -32.8189081038       34.3139151115       18.7371459832  MEMB      99              0.0000000000
     12261        99  DOPE      O11           -35.2608938110       34.7633117553       18.0258316956  MEMB      99              0.0000000000
     12262        99  DOPE      O12           -34.3384518269       35.6793306449       20.0805407085  MEMB      99              0.0000000000
     12263        99  DOPE      C1            -36.5690508704       35.0219491849       18.6036102527  MEMB      99              0.0000000000
     12264        99  DOPE      HA            -36.5516674091       35.6694430705       19.5196295289  MEMB      99              0.0000000000
     12265        99  DOPE      HB            -37.0660939303       34.0607922059       18.8705550637  MEMB      99              0.0000000000
     12266        99  DOPE      C2            -37.5073451397       35.8161810404       17.6755253587  MEMB      99              0.0000000000
     12267        99  DOPE      HS            -38.5241744971       35.7259064131       18.1205343330  MEMB      99              0.0000000000
     12268        99  DOPE      O21           -37.4600122124       35.2890850078       16.3422491042  MEMB      99              0.0000000000
     12269        99  DOPE      C21           -38.0175752409       34.1062424868       16.2294727967  MEMB      99              0.0000000000
     12270        99  DOPE      O22           -38.6376387633       33.5122814405       17.0971679792  MEMB      99              0.0000000000
     12271        99  DOPE      C22           -37.9549258824       33.7082370732       14.7496113300  MEMB      99              0.0000000000
     12272        99  DOPE      H2R           -38.4685089673       34.5109740291       14.1851965844  MEMB      99              0.0000000000
     12273        99  DOPE      H2S           -38.5282985289       32.7662065566       14.6346446058  MEMB      99              0.0000000000
     12274        99  DOPE      C3            -37.1307218039       37.3288602433       17.6821358560  MEMB      99              0.0000000000
     12275        99  DOPE      HX            -37.3462389839       37.7064253327       18.7054823282  MEMB      99              0.0000000000
     12276        99  DOPE      HY            -37.7884964603       37.9089117592       16.9997460854  MEMB      99              0.0000000000
     12277        99  DOPE      O31           -35.7273105759       37.5185693098       17.4084643757  MEMB      99              0.0000000000
     12278        99  DOPE      C31           -35.4355081266       37.3774307481       16.1182674403  MEMB      99              0.0000000000
     12279        99  DOPE      O32           -36.2147685571       37.5251337942       15.1936846061  MEMB      99              0.0000000000
     12280        99  DOPE      C32           -33.9558453833       37.0598926260       15.9568039646  MEMB      99              0.0000000000
     12281        99  DOPE      H2X           -33.4041595207       37.7042455979       16.6733627692  MEMB      99              0.0000000000
     12282        99  DOPE      H2Y           -33.7994177605       35.9985734871       16.2385741551  MEMB      99              0.0000000000
     12283        99  DOPE      C23           -36.5595345309       33.5437448556       14.1113840158  MEMB      99              0.0000000000
     12284        99  DOPE      H3R           -35.9752786611       32.7837459341       14.6697404942  MEMB      99              0.0000000000
     12285        99  DOPE      H3S           -36.0060014360       34.5100653148       14.1529078720  MEMB      99              0.0000000000
     12286        99  DOPE      C24           -36.7197377935       33.0993654230       12.6455633701  MEMB      99              0.0000000000
     12287        99  DOPE      H4R           -37.0948303496       33.9667826476       12.0548948814  MEMB      99              0.0000000000
     12288        99  DOPE      H4S           -37.4944736373       32.3023267551       12.6000216493  MEMB      99              0.0000000000
     12289        99  DOPE      C25           -35.4283716628       32.5654013443       12.0134915996  MEMB      99              0.0000000000
     12290        99  DOPE      H5R           -34.9774322414       31.7985134646       12.6834049343  MEMB      99              0.0000000000
     12291        99  DOPE      H5S           -34.7089613763       33.4103890825       11.9618444616  MEMB      99              0.0000000000
     12292        99  DOPE      C26           -35.6102269578       31.9389592584       10.6129490433  MEMB      99              0.0000000000
     12293        99  DOPE      H6R           -36.1087063164       30.9525187656       10.7184450190  MEMB      99              0.0000000000
     12294        99  DOPE      H6S           -34.6062079853       31.7671738907       10.1653825464  MEMB      99              0.0000000000
     12295        99  DOPE      C27           -36.4531342660       32.7673720344        9.6279715431  MEMB      99              0.0000000000
     12296        99  DOPE      H7R           -36.2833033020       33.8442217981        9.8512592972  MEMB      99              0.0000000000
     12297        99  DOPE      H7S           -37.5274135566       32.5530844998        9.8115990354  MEMB      99              0.0000000000
     12298        99  DOPE      C28           -36.1434293498       32.5312737507        8.1280698860  MEMB      99              0.0000000000
     12299        99  DOPE      H8R           -35.1721189665       33.0237189895        7.9166183431  MEMB      99              0.0000000000
     12300        99  DOPE      H8S           -36.9291255416       33.0627468962        7.5409274390  MEMB      99              0.0000000000
     12301        99  DOPE      C29           -36.0454659545       31.1051055787        7.6654912391  MEMB      99              0.0000000000
     12302        99  DOPE      H9R           -36.6299711532       30.3803478635        8.2537821161  MEMB      99              0.0000000000
     12303        99  DOPE      C210          -35.2767148834       30.6723730385        6.6423291785  MEMB      99              0.0000000000
     12304        99  DOPE      H10R          -35.2904095703       29.6026717416        6.3847389463  MEMB      99              0.0000000000
     12305        99  DOPE      C211          -34.3735687551       31.5034369178        5.7571680216  MEMB      99              0.0000000000
     12306        99  DOPE      H11R          -34.7513158080       32.5452943241        5.6553838626  MEMB      99              0.0000000000
     12307        99  DOPE      H11S          -34.3985229616       31.0783382639        4.7386899807  MEMB      99              0.0000000000
     12308        99  DOPE      C212          -32.9015192416       31.5805287930        6.2187562196  MEMB      99              0.0000000000
     12309        99  DOPE      H12R          -32.6131817273       30.6377965749        6.7399075714  MEMB      99              0.0000000000
     12310        99  DOPE      H12S          -32.8454364994       32.3994528707        6.9710821023  MEMB      99              0.0000000000
     12311        99  DOPE      C213          -31.8249777327       31.8264645104        5.1277962425  MEMB      99              0.0000000000
     12312        99  DOPE      H13R          -31.6417612343       30.9376389358        4.5008728567  MEMB      99              0.0000000000
     12313        99  DOPE      H13S          -30.8787794613       31.9989530848        5.6914221045  MEMB      99              0.0000000000
     12314        99  DOPE      C214          -31.9878435262       33.0347755990        4.1927737699  MEMB      99              0.0000000000
     12315        99  DOPE      H14R          -30.9923327313       33.2802799235        3.7607347188  MEMB      99              0.0000000000
     12316        99  DOPE      H14S          -32.2994770706       33.8940466359        4.8316764339  MEMB      99              0.0000000000
     12317        99  DOPE      C215          -32.9875111623       32.9463917669        3.0214712370  MEMB      99              0.0000000000
     12318        99  DOPE      H15R          -33.0045961103       33.9769265759        2.6013856329  MEMB      99              0.0000000000
     12319        99  DOPE      H15S          -34.0003337312       32.7151222561        3.4175505064  MEMB      99              0.0000000000
     12320        99  DOPE      C216          -32.7657045053       32.0485328747        1.7858669421  MEMB      99              0.0000000000
     12321        99  DOPE      H16R          -33.4043153094       32.4611701907        0.9682087121  MEMB      99              0.0000000000
     12322        99  DOPE      H16S          -33.1643625752       31.0433191438        1.9739542130  MEMB      99              0.0000000000
     12323        99  DOPE      C217          -31.3580954650       31.8568788156        1.2262314795  MEMB      99              0.0000000000
     12324        99  DOPE      H17R          -30.7222641177       31.3531078958        1.9881920341  MEMB      99              0.0000000000
     12325        99  DOPE      H17S          -30.9070227354       32.8442520817        0.9838710598  MEMB      99              0.0000000000
     12326        99  DOPE      C218          -31.4207441415       30.9833595212       -0.0304880352  MEMB      99              0.0000000000
     12327        99  DOPE      H18R          -31.8388149200       29.9806908299        0.1998405049  MEMB      99              0.0000000000
     12328        99  DOPE      H18S          -30.4201545352       30.8554219986       -0.4944716752  MEMB      99              0.0000000000
     12329        99  DOPE      H18T          -32.0996696101       31.4455823333       -0.7795456467  MEMB      99              0.0000000000
     12330        99  DOPE      C33           -33.4678243386       37.3380948628       14.5189223435  MEMB      99              0.0000000000
     12331        99  DOPE      H3X           -32.5231943699       37.9232471233       14.5888781756  MEMB      99              0.0000000000
     12332        99  DOPE      H3Y           -34.1976115113       37.9524738048       13.9472217139  MEMB      99              0.0000000000
     12333        99  DOPE      C34           -33.1803233220       36.1203552297       13.6430820912  MEMB      99              0.0000000000
     12334        99  DOPE      H4X           -32.3329573062       35.5511271879       14.0815959299  MEMB      99              0.0000000000
     12335        99  DOPE      H4Y           -34.0638508366       35.4509395082       13.5821147691  MEMB      99              0.0000000000
     12336        99  DOPE      C35           -32.8325976432       36.6053041614       12.2270324189  MEMB      99              0.0000000000
     12337        99  DOPE      H5X           -32.4798975380       37.6628435312       12.2917349079  MEMB      99              0.0000000000
     12338        99  DOPE      H5Y           -33.7469121600       36.6144841656       11.6107789655  MEMB      99              0.0000000000
     12339        99  DOPE      C36           -31.6791733373       35.8550421161       11.5616982966  MEMB      99              0.0000000000
     12340        99  DOPE      H6X           -30.8638132545       35.9793391774       12.2882202346  MEMB      99              0.0000000000
     12341        99  DOPE      H6Y           -31.3485197369       36.3796862086       10.6410782814  MEMB      99              0.0000000000
     12342        99  DOPE      C37           -31.8502906143       34.3440355000       11.3228933495  MEMB      99              0.0000000000
     12343        99  DOPE      H7X           -30.8318929193       33.9036126823       11.2063821267  MEMB      99              0.0000000000
     12344        99  DOPE      H7Y           -32.2982780349       33.8707796392       12.2243080693  MEMB      99              0.0000000000
     12345        99  DOPE      C38           -32.6584172795       33.9578855801       10.0680001828  MEMB      99              0.0000000000
     12346        99  DOPE      H8X           -33.7359294123       34.1080161750       10.2783721012  MEMB      99              0.0000000000
     12347        99  DOPE      H8Y           -32.5262940567       32.8644200525        9.9044638308  MEMB      99              0.0000000000
     12348        99  DOPE      C39           -32.2652913932       34.7150672465        8.8259094317  MEMB      99              0.0000000000
     12349        99  DOPE      H9X           -31.4149181292       34.2985672188        8.2656873338  MEMB      99              0.0000000000
     12350        99  DOPE      C310          -32.8504869449       35.8464510926        8.3896644056  MEMB      99              0.0000000000
     12351        99  DOPE      H10X          -32.4715279215       36.3265158243        7.4750153969  MEMB      99              0.0000000000
     12352        99  DOPE      C311          -34.0017584587       36.5732140695        9.0463773825  MEMB      99              0.0000000000
     12353        99  DOPE      H11X          -34.5024451505       35.9744305670        9.8381073449  MEMB      99              0.0000000000
     12354        99  DOPE      H11Y          -33.6208254180       37.4802025830        9.5555374194  MEMB      99              0.0000000000
     12355        99  DOPE      C312          -35.0758661779       36.9733080230        8.0263011609  MEMB      99              0.0000000000
     12356        99  DOPE      H12X          -34.5910136656       37.3489367982        7.1029316249  MEMB      99              0.0000000000
     12357        99  DOPE      H12Y          -35.7190906107       37.7837038007        8.4353070149  MEMB      99              0.0000000000
     12358        99  DOPE      C313          -35.9531611084       35.7755192386        7.7084559454  MEMB      99              0.0000000000
     12359        99  DOPE      H13X          -35.2776802826       34.9205299128        7.5216849689  MEMB      99              0.0000000000
     12360        99  DOPE      H13Y          -36.5478821512       35.5439928240        8.6112993267  MEMB      99              0.0000000000
     12361        99  DOPE      C314          -36.8666982984       35.9286610957        6.5007136897  MEMB      99              0.0000000000
     12362        99  DOPE      H14X          -37.5226174445       36.8174391910        6.6215667644  MEMB      99              0.0000000000
     12363        99  DOPE      H14Y          -37.5165281111       35.0228303966        6.4480508293  MEMB      99              0.0000000000
     12364        99  DOPE      C315          -36.0943386597       36.0170540044        5.1854513364  MEMB      99              0.0000000000
     12365        99  DOPE      H15X          -35.4270311022       35.1270446025        5.1122556658  MEMB      99              0.0000000000
     12366        99  DOPE      H15Y          -35.4591552172       36.9267081151        5.1650505400  MEMB      99              0.0000000000
     12367        99  DOPE      C316          -37.0644224045       36.0509982794        4.0060832590  MEMB      99              0.0000000000
     12368        99  DOPE      H16X          -37.7538457290       36.9169185224        4.1092245148  MEMB      99              0.0000000000
     12369        99  DOPE      H16Y          -37.6582639197       35.1145687487        4.0577805149  MEMB      99              0.0000000000
     12370        99  DOPE      C317          -36.3898385142       36.0687422494        2.6405630607  MEMB      99              0.0000000000
     12371        99  DOPE      H17X          -37.1528922147       36.2257939502        1.8458585572  MEMB      99              0.0000000000
     12372        99  DOPE      H17Y          -35.6691601617       36.9164063419        2.5961838117  MEMB      99              0.0000000000
     12373        99  DOPE      C318          -35.6593779269       34.7572025693        2.4014706114  MEMB      99              0.0000000000
     12374        99  DOPE      H18X          -34.7386500191       34.7931709737        3.0133426798  MEMB      99              0.0000000000
     12375        99  DOPE      H18Y          -36.2587675450       33.8866580742        2.7465792464  MEMB      99              0.0000000000
     12376        99  DOPE      H18Z          -35.3937288953       34.6038819818        1.3360592522  MEMB      99              0.0000000000
     12377       100  CHL1      C3             35.1026319685       37.2502431715       17.2035358449  MEMB      100             0.0000000000
     12378       100  CHL1      H3             34.0444624893       36.9081733571       17.2536467815  MEMB      100             0.0000000000
     12379       100  CHL1      O3             35.5516454097       37.5788036070       18.5151399502  MEMB      100             0.0000000000
     12380       100  CHL1      H3'            35.0149674038       38.3114808177       18.8277836070  MEMB      100             0.0000000000
     12381       100  CHL1      C4             35.9717809507       36.1014799929       16.6686397924  MEMB      100             0.0000000000
     12382       100  CHL1      H4A            37.0124534022       36.4346745786       16.8033129029  MEMB      100             0.0000000000
     12383       100  CHL1      H4B            35.8582781097       35.2095300793       17.3241946640  MEMB      100             0.0000000000
     12384       100  CHL1      C5             35.8243517032       35.7740388408       15.2014056093  MEMB      100             0.0000000000
     12385       100  CHL1      C6             35.6218431618       34.5190005825       14.7655880040  MEMB      100             0.0000000000
     12386       100  CHL1      H6             35.5685096013       33.6892975212       15.4890434358  MEMB      100             0.0000000000
     12387       100  CHL1      C7             35.7014973342       34.1377336182       13.3150451655  MEMB      100             0.0000000000
     12388       100  CHL1      H7A            36.3543213175       33.2447885178       13.1906766902  MEMB      100             0.0000000000
     12389       100  CHL1      H7B            34.7014114315       33.8511818143       12.9358903579  MEMB      100             0.0000000000
     12390       100  CHL1      C8             36.2843182188       35.2746051176       12.4263649310  MEMB      100             0.0000000000
     12391       100  CHL1      H8             37.3824737787       35.3202878563       12.5679409108  MEMB      100             0.0000000000
     12392       100  CHL1      C14            36.0404514769       34.9642248044       10.9709676582  MEMB      100             0.0000000000
     12393       100  CHL1      H14            34.9323134139       34.9235330943       10.8687756647  MEMB      100             0.0000000000
     12394       100  CHL1      C15            36.4741036033       33.5930605045       10.4423649186  MEMB      100             0.0000000000
     12395       100  CHL1      H15A           37.5333515486       33.4044801868       10.7077986640  MEMB      100             0.0000000000
     12396       100  CHL1      H15B           35.8418500401       32.7899997260       10.8673773245  MEMB      100             0.0000000000
     12397       100  CHL1      C16            36.3001449448       33.7553584672        8.9254781154  MEMB      100             0.0000000000
     12398       100  CHL1      H16A           37.2165855777       33.4269326475        8.3924813552  MEMB      100             0.0000000000
     12399       100  CHL1      H16B           35.4347162082       33.1622854100        8.5625216237  MEMB      100             0.0000000000
     12400       100  CHL1      C17            36.0353929292       35.2806010145        8.6946979709  MEMB      100             0.0000000000
     12401       100  CHL1      H17            34.9357818884       35.4161684054        8.8030531842  MEMB      100             0.0000000000
     12402       100  CHL1      C13            36.5550577301       35.9851907544        9.9571351058  MEMB      100             0.0000000000
     12403       100  CHL1      C18            38.0962551096       36.0197611901        9.9326858954  MEMB      100             0.0000000000
     12404       100  CHL1      H18A           38.5075381833       36.2939008792       10.9249894988  MEMB      100             0.0000000000
     12405       100  CHL1      H18B           38.5178802572       35.0390552873        9.6427855282  MEMB      100             0.0000000000
     12406       100  CHL1      H18C           38.4435438008       36.7709709019        9.1936003867  MEMB      100             0.0000000000
     12407       100  CHL1      C12            35.9695694941       37.3670885545       10.2873733058  MEMB      100             0.0000000000
     12408       100  CHL1      H12A           36.4716823293       38.1477082762        9.6805477575  MEMB      100             0.0000000000
     12409       100  CHL1      H12B           34.9042752213       37.3773026572       10.0132394098  MEMB      100             0.0000000000
     12410       100  CHL1      C11            36.1441500771       37.7375381273       11.7704288963  MEMB      100             0.0000000000
     12411       100  CHL1      H11A           37.2320117870       37.9282787727       11.8761118999  MEMB      100             0.0000000000
     12412       100  CHL1      H11B           35.6092884337       38.6865425340       11.9765180770  MEMB      100             0.0000000000
     12413       100  CHL1      C9             35.6974839153       36.6434576603       12.7908643382  MEMB      100             0.0000000000
     12414       100  CHL1      H9             34.5908709623       36.5552253500       12.7085792205  MEMB      100             0.0000000000
     12415       100  CHL1      C10            35.9727878149       36.9983376573       14.2772307924  MEMB      100             0.0000000000
     12416       100  CHL1      C19            37.4241800672       37.5340023209       14.3543623963  MEMB      100             0.0000000000
     12417       100  CHL1      H19A           37.4929374242       38.5382126398       13.8915233770  MEMB      100             0.0000000000
     12418       100  CHL1      H19B           37.7812155303       37.6558234282       15.3877521367  MEMB      100             0.0000000000
     12419       100  CHL1      H19C           38.1403974705       36.8595961817       13.8450674903  MEMB      100             0.0000000000
     12420       100  CHL1      C1             34.9880008595       38.0948415730       14.7932232156  MEMB      100             0.0000000000
     12421       100  CHL1      H1A            35.1223879518       39.0031275157       14.1677425764  MEMB      100             0.0000000000
     12422       100  CHL1      H1B            33.9406295284       37.7495562238       14.6522774891  MEMB      100             0.0000000000
     12423       100  CHL1      C2             35.2014642753       38.4780216098       16.2791801988  MEMB      100             0.0000000000
     12424       100  CHL1      H2A            34.4620455947       39.2458080586       16.5909446410  MEMB      100             0.0000000000
     12425       100  CHL1      H2B            36.2153200831       38.9250075183       16.3763918087  MEMB      100             0.0000000000
     12426       100  CHL1      C20            36.3411185624       35.7447239644        7.2625878881  MEMB      100             0.0000000000
     12427       100  CHL1      H20            37.3706982298       35.4494506784        6.9846562546  MEMB      100             0.0000000000
     12428       100  CHL1      C21            36.2026477714       37.2710695063        7.1194890645  MEMB      100             0.0000000000
     12429       100  CHL1      H21A           36.2910723991       37.5657275592        6.0531840685  MEMB      100             0.0000000000
     12430       100  CHL1      H21B           36.9991207926       37.7908453994        7.6862170321  MEMB      100             0.0000000000
     12431       100  CHL1      H21C           35.2087387000       37.6020740860        7.4924631243  MEMB      100             0.0000000000
     12432       100  CHL1      C22            35.3569978393       35.0737603961        6.2760338111  MEMB      100             0.0000000000
     12433       100  CHL1      H22A           34.6983937025       34.4160808902        6.8783111047  MEMB      100             0.0000000000
     12434       100  CHL1      H22B           34.7252402969       35.8229412434        5.7561307996  MEMB      100             0.0000000000
     12435       100  CHL1      C23            35.8882698113       34.0329136075        5.3063244007  MEMB      100             0.0000000000
     12436       100  CHL1      H23A           36.6142252267       33.3940438967        5.8528565219  MEMB      100             0.0000000000
     12437       100  CHL1      H23B           34.9915788029       33.4232634598        5.0382900698  MEMB      100             0.0000000000
     12438       100  CHL1      C24            36.4354915049       34.5388008914        3.9796565825  MEMB      100             0.0000000000
     12439       100  CHL1      H24A           35.6060997052       35.0412349947        3.4304139054  MEMB      100             0.0000000000
     12440       100  CHL1      H24B           37.2031894991       35.3071278347        4.1590303744  MEMB      100             0.0000000000
     12441       100  CHL1      C25            36.9360603757       33.3665044647        3.1034388783  MEMB      100             0.0000000000
     12442       100  CHL1      H25            36.0313050643       32.7457912555        2.8999672548  MEMB      100             0.0000000000
     12443       100  CHL1      C26            37.4170916230       33.8318854244        1.7346260881  MEMB      100             0.0000000000
     12444       100  CHL1      H26A           38.3870663862       34.3654956649        1.7846632452  MEMB      100             0.0000000000
     12445       100  CHL1      H26B           37.5365836370       32.9635149911        1.0515996998  MEMB      100             0.0000000000
     12446       100  CHL1      H26C           36.6660463611       34.5188324207        1.2914620563  MEMB      100             0.0000000000
     12447       100  CHL1      C27            37.9804821893       32.4486246524        3.7748621634  MEMB      100             0.0000000000
     12448       100  CHL1      H27A           38.8766281594       33.0074071799        4.1057872372  MEMB      100             0.0000000000
     12449       100  CHL1      H27B           37.5582209542       31.9443705535        4.6663347910  MEMB      100             0.0000000000
     12450       100  CHL1      H27C           38.2945281492       31.6530981174        3.0673319205  MEMB      100             0.0000000000
     12451       101  23SM      N              -4.2717240894       -0.8308926600      -27.9596740461  MEMB      101             0.0000000000
     12452       101  23SM      C15            -5.1505106564       -2.0441876011      -27.9004943077  MEMB      101             0.0000000000
     12453       101  23SM      H15A           -4.6646470333       -2.8872782237      -28.3956570610  MEMB      101             0.0000000000
     12454       101  23SM      H15B           -6.1128558539       -1.8500643659      -28.3446671827  MEMB      101             0.0000000000
     12455       101  23SM      H15C           -5.3051482404       -2.3452663685      -26.8636799548  MEMB      101             0.0000000000
     12456       101  23SM      C14            -3.9739540886       -0.5053127707      -29.3877758261  MEMB      101             0.0000000000
     12457       101  23SM      H14A           -3.1627404867        0.2040876116      -29.4861047874  MEMB      101             0.0000000000
     12458       101  23SM      H14B           -4.8326838339       -0.1076860245      -29.9236974166  MEMB      101             0.0000000000
     12459       101  23SM      H14C           -3.7346291143       -1.4146262069      -29.9383861880  MEMB      101             0.0000000000
     12460       101  23SM      C13            -4.9451358363        0.3188558617      -27.2821355764  MEMB      101             0.0000000000
     12461       101  23SM      H13A           -5.9104120372        0.5225764928      -27.7110763871  MEMB      101             0.0000000000
     12462       101  23SM      H13B           -4.3198566044        1.1977183909      -27.3346407428  MEMB      101             0.0000000000
     12463       101  23SM      H13C           -5.0627261886        0.1065765950      -26.2161646674  MEMB      101             0.0000000000
     12464       101  23SM      C12            -2.9723169862       -1.1399133402      -27.2209118764  MEMB      101             0.0000000000
     12465       101  23SM      H12A           -2.3873007839       -0.2286134186      -27.1383180064  MEMB      101             0.0000000000
     12466       101  23SM      H12B           -2.3985123916       -1.8623543450      -27.7996824871  MEMB      101             0.0000000000
     12467       101  23SM      C11            -3.0799535364       -1.6887868150      -25.7725066462  MEMB      101             0.0000000000
     12468       101  23SM      H11A           -2.0451925672       -1.9108364164      -25.4038368227  MEMB      101             0.0000000000
     12469       101  23SM      H11B           -3.6139643298       -2.6656946506      -25.7778780044  MEMB      101             0.0000000000
     12470       101  23SM      P              -2.9585107716        0.4424175989      -24.2992187314  MEMB      101             0.0000000000
     12471       101  23SM      O13            -1.7168668407        0.5957867372      -25.0815507543  MEMB      101             0.0000000000
     12472       101  23SM      O14            -3.8263328895        1.6429032997      -24.2792989073  MEMB      101             0.0000000000
     12473       101  23SM      O11            -2.6595028764       -0.0693451443      -22.8197786061  MEMB      101             0.0000000000
     12474       101  23SM      O12            -3.7715439795       -0.7677460293      -24.9232880033  MEMB      101             0.0000000000
     12475       101  23SM      C1S            -3.6157107513       -0.9330986370      -22.1546295263  MEMB      101             0.0000000000
     12476       101  23SM      H1S            -3.6698967856       -1.9249671970      -22.6610969393  MEMB      101             0.0000000000
     12477       101  23SM      H1T            -4.6313525674       -0.4790180837      -22.1695947482  MEMB      101             0.0000000000
     12478       101  23SM      NF             -4.4661357259       -1.7725668401      -19.9258395650  MEMB      101             0.0000000000
     12479       101  23SM      HNF            -4.7986343289       -1.2020485176      -19.1870806453  MEMB      101             0.0000000000
     12480       101  23SM      C2S            -3.2968002401       -1.2302633196      -20.6388584778  MEMB      101             0.0000000000
     12481       101  23SM      H2S            -2.4865797429       -1.9928662176      -20.5960679788  MEMB      101             0.0000000000
     12482       101  23SM      C3S            -2.7774072548        0.0705633916      -19.9301631133  MEMB      101             0.0000000000
     12483       101  23SM      H3S            -3.5931107113        0.8293723753      -19.9448754247  MEMB      101             0.0000000000
     12484       101  23SM      O3             -1.6221248810        0.6808935984      -20.4994216683  MEMB      101             0.0000000000
     12485       101  23SM      HO3            -1.5624560804        0.2673480757      -21.3727270705  MEMB      101             0.0000000000
     12486       101  23SM      C4S            -2.4670454662       -0.2196279507      -18.4808256302  MEMB      101             0.0000000000
     12487       101  23SM      H4S            -3.1470650902        0.3073711064      -17.8041598625  MEMB      101             0.0000000000
     12488       101  23SM      C5S            -1.4869870914       -0.9820032809      -17.9467858061  MEMB      101             0.0000000000
     12489       101  23SM      H5S            -0.7958403585       -1.5201373112      -18.6208572365  MEMB      101             0.0000000000
     12490       101  23SM      C6S            -1.2699929454       -1.1844166251      -16.4625862095  MEMB      101             0.0000000000
     12491       101  23SM      H6S            -0.1755017542       -1.2036082728      -16.2567636529  MEMB      101             0.0000000000
     12492       101  23SM      H6T            -1.6663472163       -2.1728777038      -16.1440446275  MEMB      101             0.0000000000
     12493       101  23SM      C7S            -1.8790664307       -0.0742863088      -15.5711030348  MEMB      101             0.0000000000
     12494       101  23SM      H7S            -2.9812281469       -0.0189553385      -15.7143298471  MEMB      101             0.0000000000
     12495       101  23SM      H7T            -1.4440604420        0.9041228405      -15.8802954321  MEMB      101             0.0000000000
     12496       101  23SM      C8S            -1.6192979309       -0.2493897067      -14.0666613309  MEMB      101             0.0000000000
     12497       101  23SM      H8S            -0.5407984354       -0.4562471823      -13.8960146534  MEMB      101             0.0000000000
     12498       101  23SM      H8T            -2.1992481900       -1.1208205085      -13.6955055984  MEMB      101             0.0000000000
     12499       101  23SM      C9S            -2.0188852687        1.0078888503      -13.2752057250  MEMB      101             0.0000000000
     12500       101  23SM      H9S            -3.0578000175        1.2996947879      -13.5494054023  MEMB      101             0.0000000000
     12501       101  23SM      H9T            -1.3471948073        1.8365458430      -13.5925925801  MEMB      101             0.0000000000
     12502       101  23SM      C10S           -1.9331514846        0.8586422454      -11.7472168100  MEMB      101             0.0000000000
     12503       101  23SM      H10S           -1.7947301317        1.8697252400      -11.3014833028  MEMB      101             0.0000000000
     12504       101  23SM      H10T           -1.0505679641        0.2412438027      -11.4711109541  MEMB      101             0.0000000000
     12505       101  23SM      C11S           -3.2098350197        0.2539604795      -11.1494339017  MEMB      101             0.0000000000
     12506       101  23SM      H11S           -3.1890471620       -0.8386289216      -11.3347722816  MEMB      101             0.0000000000
     12507       101  23SM      H11T           -4.0997893676        0.6706214876      -11.6735634053  MEMB      101             0.0000000000
     12508       101  23SM      C12S           -3.4028307838        0.4970812660       -9.6493518555  MEMB      101             0.0000000000
     12509       101  23SM      H12S           -4.3581889532        0.0148477175       -9.3434185227  MEMB      101             0.0000000000
     12510       101  23SM      H12T           -3.5126542229        1.5846889132       -9.4500410662  MEMB      101             0.0000000000
     12511       101  23SM      C13S           -2.2674728146       -0.0664559017       -8.7937945577  MEMB      101             0.0000000000
     12512       101  23SM      H13S           -1.3515297247        0.5477832780       -8.9373118580  MEMB      101             0.0000000000
     12513       101  23SM      H13T           -2.0342198458       -1.1033188250       -9.1261010518  MEMB      101             0.0000000000
     12514       101  23SM      C14S           -2.6490995077       -0.1045919039       -7.3119541600  MEMB      101             0.0000000000
     12515       101  23SM      H14S           -3.4939684108       -0.8207141915       -7.1887385842  MEMB      101             0.0000000000
     12516       101  23SM      H14T           -3.0045592997        0.8938589374       -6.9776705092  MEMB      101             0.0000000000
     12517       101  23SM      C15S           -1.4876294316       -0.5653008943       -6.4330652666  MEMB      101             0.0000000000
     12518       101  23SM      H15S           -0.7113668744        0.2239069393       -6.3474178941  MEMB      101             0.0000000000
     12519       101  23SM      H15T           -1.0194701404       -1.4475350378       -6.9341294331  MEMB      101             0.0000000000
     12520       101  23SM      C16S           -1.9537869807       -1.0316102200       -5.0542022468  MEMB      101             0.0000000000
     12521       101  23SM      H16S           -1.1367834953       -1.6504746755       -4.6170353884  MEMB      101             0.0000000000
     12522       101  23SM      H16T           -2.8546958941       -1.6740388804       -5.1902850004  MEMB      101             0.0000000000
     12523       101  23SM      C17S           -2.3055338581        0.0499193837       -4.0344268403  MEMB      101             0.0000000000
     12524       101  23SM      H17S           -3.1793267375        0.6370401389       -4.3975211653  MEMB      101             0.0000000000
     12525       101  23SM      H17T           -1.4455321932        0.7477091667       -3.9224075610  MEMB      101             0.0000000000
     12526       101  23SM      C18S           -2.6297566997       -0.5857020289       -2.6776894188  MEMB      101             0.0000000000
     12527       101  23SM      H18S           -1.7429061760       -1.1307067221       -2.2884771985  MEMB      101             0.0000000000
     12528       101  23SM      H18T           -3.4533670587       -1.3225297907       -2.7866521633  MEMB      101             0.0000000000
     12529       101  23SM      H18U           -2.9386217264        0.1777198061       -1.9345741538  MEMB      101             0.0000000000
     12530       101  23SM      C1F            -5.1297854173       -2.9198961515      -20.1288682485  MEMB      101             0.0000000000
     12531       101  23SM      OF             -4.9195610656       -3.6248185237      -21.1115131480  MEMB      101             0.0000000000
     12532       101  23SM      C2F            -6.2255095525       -3.2335701759      -19.1307249586  MEMB      101             0.0000000000
     12533       101  23SM      H2F            -7.0670691483       -3.7113444702      -19.6790839102  MEMB      101             0.0000000000
     12534       101  23SM      H2G            -6.6250487481       -2.2941574748      -18.6960888787  MEMB      101             0.0000000000
     12535       101  23SM      C3F            -5.7800067103       -4.1717502391      -17.9754356786  MEMB      101             0.0000000000
     12536       101  23SM      H3F            -5.2975656430       -5.0814827914      -18.3840219952  MEMB      101             0.0000000000
     12537       101  23SM      H3G            -6.6857088251       -4.5036030731      -17.4102952434  MEMB      101             0.0000000000
     12538       101  23SM      C4F            -4.7875629015       -3.5902712860      -16.9646757234  MEMB      101             0.0000000000
     12539       101  23SM      H4F            -3.8996681617       -3.1561467780      -17.4712430243  MEMB      101             0.0000000000
     12540       101  23SM      H4G            -4.4159744050       -4.4447692185      -16.3478382436  MEMB      101             0.0000000000
     12541       101  23SM      C5F            -5.4369826137       -2.5912449418      -16.0071495390  MEMB      101             0.0000000000
     12542       101  23SM      H5F            -6.4690246809       -2.9271188672      -15.7566167237  MEMB      101             0.0000000000
     12543       101  23SM      H5G            -5.5048469093       -1.5960908276      -16.4961406911  MEMB      101             0.0000000000
     12544       101  23SM      C6F            -4.6500678659       -2.4864410612      -14.7005201209  MEMB      101             0.0000000000
     12545       101  23SM      H6F            -3.5753163509       -2.3549334242      -14.9555821414  MEMB      101             0.0000000000
     12546       101  23SM      H6G            -4.7223951430       -3.4378797456      -14.1285720904  MEMB      101             0.0000000000
     12547       101  23SM      C7F            -5.1145861944       -1.3109843679      -13.8366602208  MEMB      101             0.0000000000
     12548       101  23SM      H7F            -5.1426671733       -0.3896821782      -14.4588655499  MEMB      101             0.0000000000
     12549       101  23SM      H7G            -4.3495049215       -1.1447198064      -13.0566069805  MEMB      101             0.0000000000
     12550       101  23SM      C8F            -6.4777793294       -1.5202978256      -13.1586180038  MEMB      101             0.0000000000
     12551       101  23SM      H8F            -7.2445054855       -1.7109420249      -13.9392271158  MEMB      101             0.0000000000
     12552       101  23SM      H8G            -6.7595801333       -0.5753446151      -12.6431118821  MEMB      101             0.0000000000
     12553       101  23SM      C9F            -6.4982593993       -2.6556093505      -12.1188366244  MEMB      101             0.0000000000
     12554       101  23SM      H9F            -6.3061197742       -3.6333353853      -12.6135060251  MEMB      101             0.0000000000
     12555       101  23SM      H9G            -7.5132837097       -2.6913849200      -11.6626753347  MEMB      101             0.0000000000
     12556       101  23SM      C10F           -5.4872879333       -2.4639003865      -10.9895197585  MEMB      101             0.0000000000
     12557       101  23SM      H10F           -5.6772442054       -1.4502203018      -10.5670561508  MEMB      101             0.0000000000
     12558       101  23SM      H10G           -4.4546921273       -2.4917575080      -11.3923962903  MEMB      101             0.0000000000
     12559       101  23SM      C11F           -5.5833776367       -3.4947051258       -9.8577855759  MEMB      101             0.0000000000
     12560       101  23SM      H11F           -4.8433235555       -4.3069565348      -10.0202173933  MEMB      101             0.0000000000
     12561       101  23SM      H11G           -6.5946087980       -3.9631954494       -9.8537403666  MEMB      101             0.0000000000
     12562       101  23SM      C12F           -5.3750642765       -2.8135900207       -8.5051000124  MEMB      101             0.0000000000
     12563       101  23SM      H12F           -4.7005156507       -1.9435449349       -8.6384982846  MEMB      101             0.0000000000
     12564       101  23SM      H12G           -4.8678823518       -3.4872726873       -7.7841886399  MEMB      101             0.0000000000
     12565       101  23SM      C13F           -6.7332357144       -2.3476717372       -7.9679162107  MEMB      101             0.0000000000
     12566       101  23SM      H13F           -7.3624781140       -3.2417065007       -7.7763525218  MEMB      101             0.0000000000
     12567       101  23SM      H13G           -7.2339622574       -1.7594910871       -8.7710930150  MEMB      101             0.0000000000
     12568       101  23SM      C14F           -6.6425851177       -1.4794055437       -6.7147383374  MEMB      101             0.0000000000
     12569       101  23SM      H14F           -7.6266764196       -0.9931054418       -6.5346943341  MEMB      101             0.0000000000
     12570       101  23SM      H14G           -5.8898576632       -0.6787380484       -6.8972480017  MEMB      101             0.0000000000
     12571       101  23SM      C15F           -6.2401147648       -2.2671141718       -5.4663941534  MEMB      101             0.0000000000
     12572       101  23SM      H15F           -5.2443761477       -2.7260665415       -5.6741922537  MEMB      101             0.0000000000
     12573       101  23SM      H15G           -6.9546180142       -3.0926685511       -5.2624628319  MEMB      101             0.0000000000
     12574       101  23SM      C16F           -6.0817067091       -1.3666472359       -4.2391785402  MEMB      101             0.0000000000
     12575       101  23SM      H16F           -5.5444181705       -0.4508326041       -4.5723719765  MEMB      101             0.0000000000
     12576       101  23SM      H16G           -5.4378135497       -1.8817890999       -3.4958146679  MEMB      101             0.0000000000
     12577       101  23SM      C17F           -7.3779174395       -0.9840037380       -3.5042842071  MEMB      101             0.0000000000
     12578       101  23SM      H17F           -8.0026282984       -1.8904351759       -3.3473986861  MEMB      101             0.0000000000
     12579       101  23SM      H17G           -7.9634224979       -0.2811767169       -4.1385943940  MEMB      101             0.0000000000
     12580       101  23SM      C18F           -7.0840792195       -0.3249557645       -2.1383278368  MEMB      101             0.0000000000
     12581       101  23SM      H18F           -6.6377799570       -1.0789425163       -1.4548750030  MEMB      101             0.0000000000
     12582       101  23SM      H18G           -8.0366261643        0.0200803246       -1.6808973417  MEMB      101             0.0000000000
     12583       101  23SM      C19F           -6.1375929857        0.8771105599       -2.2807458179  MEMB      101             0.0000000000
     12584       101  23SM      H19F           -6.6741652148        1.6420365712       -2.8882692907  MEMB      101             0.0000000000
     12585       101  23SM      H19G           -5.2217990954        0.5920360723       -2.8385869712  MEMB      101             0.0000000000
     12586       101  23SM      C20F           -5.6294406116        1.5403308405       -0.9918465512  MEMB      101             0.0000000000
     12587       101  23SM      H20F           -4.7993410898        0.9389362136       -0.5622466979  MEMB      101             0.0000000000
     12588       101  23SM      H20G           -6.4365362421        1.5581151485       -0.2349754866  MEMB      101             0.0000000000
     12589       101  23SM      C21F           -5.1210133344        2.9520100835       -1.3548016730  MEMB      101             0.0000000000
     12590       101  23SM      H21F           -5.9904897191        3.6108883084       -1.5701820368  MEMB      101             0.0000000000
     12591       101  23SM      H21G           -4.5484580191        2.8481992795       -2.3066619058  MEMB      101             0.0000000000
     12592       101  23SM      C22F           -4.1845063567        3.6462758177       -0.3527545732  MEMB      101             0.0000000000
     12593       101  23SM      H22F           -3.8249038792        4.5877930100       -0.8331095043  MEMB      101             0.0000000000
     12594       101  23SM      H22G           -3.2942759357        2.9988908613       -0.1876049048  MEMB      101             0.0000000000
     12595       101  23SM      C23F           -4.8126165540        4.0051996790        0.9939503882  MEMB      101             0.0000000000
     12596       101  23SM      H23F           -4.0581455646        4.4217884023        1.6928414364  MEMB      101             0.0000000000
     12597       101  23SM      H23G           -5.2662555968        3.1078307946        1.4620542577  MEMB      101             0.0000000000
     12598       101  23SM      H23H           -5.6163736686        4.7609699410        0.8577979995  MEMB      101             0.0000000000
     12599       102  CHL1      C3              4.7363595553        0.0253502172      -17.5366725036  MEMB      102             0.0000000000
     12600       102  CHL1      H3              4.4530889851        1.1022547037      -17.4901958548  MEMB      102             0.0000000000
     12601       102  CHL1      O3              4.7582156157       -0.4214068227      -18.8891391560  MEMB      102             0.0000000000
     12602       102  CHL1      H3'             5.2437477429        0.2573051429      -19.4030286421  MEMB      102             0.0000000000
     12603       102  CHL1      C4              6.1284234624       -0.1910846700      -16.9253045213  MEMB      102             0.0000000000
     12604       102  CHL1      H4A             6.4733783521       -1.2055034957      -17.2025429650  MEMB      102             0.0000000000
     12605       102  CHL1      H4B             6.8272971327        0.5228842375      -17.4155610630  MEMB      102             0.0000000000
     12606       102  CHL1      C5              6.1676302030       -0.0801560746      -15.4183891488  MEMB      102             0.0000000000
     12607       102  CHL1      C6              7.0438578963        0.7335315258      -14.8277848378  MEMB      102             0.0000000000
     12608       102  CHL1      H6              7.7584338924        1.3029848793      -15.4367835847  MEMB      102             0.0000000000
     12609       102  CHL1      C7              7.1927946228        0.8328814501      -13.3498843602  MEMB      102             0.0000000000
     12610       102  CHL1      H7A             8.2728516087        0.8511975039      -13.0834901724  MEMB      102             0.0000000000
     12611       102  CHL1      H7B             6.7290422778        1.7748570625      -12.9865824589  MEMB      102             0.0000000000
     12612       102  CHL1      C8              6.5424742257       -0.3622501391      -12.6201167253  MEMB      102             0.0000000000
     12613       102  CHL1      H8              7.1986961977       -1.2368592174      -12.8133072472  MEMB      102             0.0000000000
     12614       102  CHL1      C14             6.4456887035       -0.0701373434      -11.1477936752  MEMB      102             0.0000000000
     12615       102  CHL1      H14             5.6244960377        0.6845757928      -11.0146624051  MEMB      102             0.0000000000
     12616       102  CHL1      C15             7.6647634062        0.5475765392      -10.5279704095  MEMB      102             0.0000000000
     12617       102  CHL1      H15A            8.5959781185        0.0044130757      -10.7975808678  MEMB      102             0.0000000000
     12618       102  CHL1      H15B            7.7197707584        1.5733825817      -10.8900713868  MEMB      102             0.0000000000
     12619       102  CHL1      C16             7.3744096056        0.4695300308       -9.0345595159  MEMB      102             0.0000000000
     12620       102  CHL1      H16A            8.3177829304        0.1596665386       -8.5369058085  MEMB      102             0.0000000000
     12621       102  CHL1      H16B            7.0299301301        1.4416225974       -8.6220115320  MEMB      102             0.0000000000
     12622       102  CHL1      C17             6.2485584829       -0.5746228828       -8.8710870893  MEMB      102             0.0000000000
     12623       102  CHL1      H17             5.3014865140       -0.0179356968       -8.6729980131  MEMB      102             0.0000000000
     12624       102  CHL1      C13             6.1220098300       -1.2303854904      -10.2513929494  MEMB      102             0.0000000000
     12625       102  CHL1      C18             7.2848586792       -2.2480254990      -10.2974033897  MEMB      102             0.0000000000
     12626       102  CHL1      H18A            6.9552272429       -3.2078641417       -9.8584380791  MEMB      102             0.0000000000
     12627       102  CHL1      H18B            7.6771412259       -2.4085910190      -11.3078725783  MEMB      102             0.0000000000
     12628       102  CHL1      H18C            8.1761076155       -1.9083367507       -9.7303237913  MEMB      102             0.0000000000
     12629       102  CHL1      C12             4.7231423331       -1.7242254673      -10.6820474504  MEMB      102             0.0000000000
     12630       102  CHL1      H12A            4.4961403807       -2.7047298451      -10.2179911209  MEMB      102             0.0000000000
     12631       102  CHL1      H12B            3.9741293733       -0.9906357810      -10.3153474391  MEMB      102             0.0000000000
     12632       102  CHL1      C11             4.5577313966       -1.8555535236      -12.2202822467  MEMB      102             0.0000000000
     12633       102  CHL1      H11A            5.0931526250       -2.7934924109      -12.4482038007  MEMB      102             0.0000000000
     12634       102  CHL1      H11B            3.4885381160       -2.0027486947      -12.4637250119  MEMB      102             0.0000000000
     12635       102  CHL1      C9              5.1443496131       -0.6985622225      -13.1045414399  MEMB      102             0.0000000000
     12636       102  CHL1      H9              4.5136196411        0.2023691583      -12.9134690775  MEMB      102             0.0000000000
     12637       102  CHL1      C10             5.1377657594       -0.9349668855      -14.6458232924  MEMB      102             0.0000000000
     12638       102  CHL1      C19             5.5260851895       -2.4115932659      -14.8769428289  MEMB      102             0.0000000000
     12639       102  CHL1      H19A            6.4952382267       -2.6336853437      -14.3807499406  MEMB      102             0.0000000000
     12640       102  CHL1      H19B            4.7596404741       -3.0795759659      -14.4426477755  MEMB      102             0.0000000000
     12641       102  CHL1      H19C            5.6067405734       -2.6889415908      -15.9427654729  MEMB      102             0.0000000000
     12642       102  CHL1      C1              3.7421227237       -0.6206092868      -15.2546470637  MEMB      102             0.0000000000
     12643       102  CHL1      H1A             2.9797953254       -1.2757431693      -14.7791469602  MEMB      102             0.0000000000
     12644       102  CHL1      H1B             3.4628773637        0.4294705589      -15.0108763418  MEMB      102             0.0000000000
     12645       102  CHL1      C2              3.6964286803       -0.8078768173      -16.7875993932  MEMB      102             0.0000000000
     12646       102  CHL1      H2A             2.6790974152       -0.6123516136      -17.1867371388  MEMB      102             0.0000000000
     12647       102  CHL1      H2B             3.9565095049       -1.8596080629      -17.0303930997  MEMB      102             0.0000000000
     12648       102  CHL1      C20             6.5539305101       -1.4661506491       -7.6849142612  MEMB      102             0.0000000000
     12649       102  CHL1      H20             7.4917472227       -2.0500100551       -7.8265635991  MEMB      102             0.0000000000
     12650       102  CHL1      C21             5.4096204463       -2.4510120479       -7.4905903223  MEMB      102             0.0000000000
     12651       102  CHL1      H21A            5.2636639029       -3.0929460720       -8.3761708499  MEMB      102             0.0000000000
     12652       102  CHL1      H21B            4.4897247505       -1.8639848207       -7.2940654994  MEMB      102             0.0000000000
     12653       102  CHL1      H21C            5.5995596085       -3.1390280113       -6.6425649176  MEMB      102             0.0000000000
     12654       102  CHL1      C22             6.7959431585       -0.6285468041       -6.4294941454  MEMB      102             0.0000000000
     12655       102  CHL1      H22A            7.7726019135       -0.0996037185       -6.5073186144  MEMB      102             0.0000000000
     12656       102  CHL1      H22B            6.0055083689        0.1448325833       -6.3001335682  MEMB      102             0.0000000000
     12657       102  CHL1      C23             6.8524787775       -1.5213868269       -5.2044519237  MEMB      102             0.0000000000
     12658       102  CHL1      H23A            5.8070217053       -1.7904771786       -4.9316554890  MEMB      102             0.0000000000
     12659       102  CHL1      H23B            7.4219254503       -2.4531754484       -5.4120771391  MEMB      102             0.0000000000
     12660       102  CHL1      C24             7.5146107179       -0.7693348897       -4.0837052394  MEMB      102             0.0000000000
     12661       102  CHL1      H24A            8.5807914934       -0.5598255731       -4.3189430685  MEMB      102             0.0000000000
     12662       102  CHL1      H24B            7.0072380233        0.2175868066       -4.0492715207  MEMB      102             0.0000000000
     12663       102  CHL1      C25             7.3970201937       -1.4572812297       -2.7217685274  MEMB      102             0.0000000000
     12664       102  CHL1      H25             7.8195620761       -0.6864312840       -2.0541484014  MEMB      102             0.0000000000
     12665       102  CHL1      C26             5.9464049505       -1.7945603472       -2.3276455476  MEMB      102             0.0000000000
     12666       102  CHL1      H26A            5.2856700017       -0.9162169745       -2.4880223471  MEMB      102             0.0000000000
     12667       102  CHL1      H26B            5.5428851994       -2.6311529299       -2.9288566439  MEMB      102             0.0000000000
     12668       102  CHL1      H26C            5.8988217591       -2.0797287455       -1.2552215807  MEMB      102             0.0000000000
     12669       102  CHL1      C27             8.3147726685       -2.6483603848       -2.4807342605  MEMB      102             0.0000000000
     12670       102  CHL1      H27A            8.0427663628       -3.5011362517       -3.1347110155  MEMB      102             0.0000000000
     12671       102  CHL1      H27B            9.3652302386       -2.3363295344       -2.6629664182  MEMB      102             0.0000000000
     12672       102  CHL1      H27C            8.2400201844       -2.9648523068       -1.4190382451  MEMB      102             0.0000000000
     12673       103  23SM      N               1.0668340543        5.0100676647      -27.0582310482  MEMB      103             0.0000000000
     12674       103  23SM      C15            -0.1326150898        5.8531643775      -27.3679874047  MEMB      103             0.0000000000
     12675       103  23SM      H15A           -0.3099976873        5.9437930840      -28.4302947720  MEMB      103             0.0000000000
     12676       103  23SM      H15B            0.0554514540        6.8677744287      -27.0013811908  MEMB      103             0.0000000000
     12677       103  23SM      H15C           -1.0137185450        5.5183314936      -26.8436500803  MEMB      103             0.0000000000
     12678       103  23SM      C14             0.7559502834        3.5754517844      -27.3309676237  MEMB      103             0.0000000000
     12679       103  23SM      H14A            1.6141048936        2.9518148336      -27.0976070791  MEMB      103             0.0000000000
     12680       103  23SM      H14B            0.4708791751        3.4235927660      -28.3638014512  MEMB      103             0.0000000000
     12681       103  23SM      H14C           -0.0820473342        3.2534469855      -26.7185419336  MEMB      103             0.0000000000
     12682       103  23SM      C13             2.2296870174        5.4723346618      -27.8554840172  MEMB      103             0.0000000000
     12683       103  23SM      H13A            2.0576387297        5.4058159337      -28.9189861013  MEMB      103             0.0000000000
     12684       103  23SM      H13B            3.1362806900        4.9243919800      -27.6114648394  MEMB      103             0.0000000000
     12685       103  23SM      H13C            2.4464318790        6.5150943044      -27.6195034036  MEMB      103             0.0000000000
     12686       103  23SM      C12             1.3816373288        5.1139364866      -25.5719567951  MEMB      103             0.0000000000
     12687       103  23SM      H12A            2.0955976667        4.3401911553      -25.3079210771  MEMB      103             0.0000000000
     12688       103  23SM      H12B            0.4695364877        4.8834971528      -25.0223858516  MEMB      103             0.0000000000
     12689       103  23SM      C11             1.8514008308        6.4588988905      -25.0138385846  MEMB      103             0.0000000000
     12690       103  23SM      H11A            2.8144539054        6.7009768477      -25.5228147362  MEMB      103             0.0000000000
     12691       103  23SM      H11B            2.0613362927        6.3535310163      -23.9199345087  MEMB      103             0.0000000000
     12692       103  23SM      P               1.2978309722        8.9277918826      -25.3048023541  MEMB      103             0.0000000000
     12693       103  23SM      O13             2.4647897565        9.0045256105      -26.2268272676  MEMB      103             0.0000000000
     12694       103  23SM      O14             0.1212687190        9.7864216453      -25.5979475329  MEMB      103             0.0000000000
     12695       103  23SM      O11             1.7912657516        9.1460982544      -23.7816412802  MEMB      103             0.0000000000
     12696       103  23SM      O12             0.8259076105        7.4370028142      -25.2316856090  MEMB      103             0.0000000000
     12697       103  23SM      C1S             0.6940891336        9.0174484606      -22.8419315419  MEMB      103             0.0000000000
     12698       103  23SM      H1S            -0.0012423453        8.1806249401      -23.1172011954  MEMB      103             0.0000000000
     12699       103  23SM      H1T             0.1032815869        9.9621937098      -22.8174152760  MEMB      103             0.0000000000
     12700       103  23SM      NF             -0.1732869608        8.4195752212      -20.6981827985  MEMB      103             0.0000000000
     12701       103  23SM      HNF            -0.6803176353        9.2072236716      -20.3634255154  MEMB      103             0.0000000000
     12702       103  23SM      C2S             1.0793649486        8.6615590767      -21.3732225842  MEMB      103             0.0000000000
     12703       103  23SM      H2S             1.7021708083        7.7341157360      -21.3808570381  MEMB      103             0.0000000000
     12704       103  23SM      C3S             1.9122874872        9.7601529512      -20.6914439199  MEMB      103             0.0000000000
     12705       103  23SM      H3S             1.3889197880       10.7355144051      -20.7975249174  MEMB      103             0.0000000000
     12706       103  23SM      O3              3.1940474531        9.8870457753      -21.2906238849  MEMB      103             0.0000000000
     12707       103  23SM      HO3             3.0010450546        9.8305646720      -22.2425271722  MEMB      103             0.0000000000
     12708       103  23SM      C4S             2.0322865055        9.4826463793      -19.1968888035  MEMB      103             0.0000000000
     12709       103  23SM      H4S             1.4921731765       10.2218247629      -18.5902753701  MEMB      103             0.0000000000
     12710       103  23SM      C5S             2.7114897891        8.5050287994      -18.5547525187  MEMB      103             0.0000000000
     12711       103  23SM      H5S             3.2668731464        7.7585876490      -19.1476823336  MEMB      103             0.0000000000
     12712       103  23SM      C6S             2.7556082413        8.3184729134      -17.0482957973  MEMB      103             0.0000000000
     12713       103  23SM      H6S             2.3658750544        7.3023638267      -16.8059721832  MEMB      103             0.0000000000
     12714       103  23SM      H6T             2.0951388627        9.0423155305      -16.5187312227  MEMB      103             0.0000000000
     12715       103  23SM      C7S             4.1742618889        8.4247761546      -16.4463062328  MEMB      103             0.0000000000
     12716       103  23SM      H7S             4.5676175055        9.4573986911      -16.5786723447  MEMB      103             0.0000000000
     12717       103  23SM      H7T             4.8495674271        7.7436224436      -17.0170283212  MEMB      103             0.0000000000
     12718       103  23SM      C8S             4.2981227702        8.0188517870      -14.9554546387  MEMB      103             0.0000000000
     12719       103  23SM      H8S             5.3902019967        7.9073736850      -14.7543140088  MEMB      103             0.0000000000
     12720       103  23SM      H8T             3.8340063294        7.0250388149      -14.7785636547  MEMB      103             0.0000000000
     12721       103  23SM      C9S             3.7494000951        9.0433389733      -13.9473280162  MEMB      103             0.0000000000
     12722       103  23SM      H9S             2.6537611354        8.9094855790      -13.8186717993  MEMB      103             0.0000000000
     12723       103  23SM      H9T             3.9189538555       10.0587731951      -14.3734432631  MEMB      103             0.0000000000
     12724       103  23SM      C10S            4.4553946982        9.0207235053      -12.5742446864  MEMB      103             0.0000000000
     12725       103  23SM      H10S            4.1275705896        9.9227465939      -12.0081042658  MEMB      103             0.0000000000
     12726       103  23SM      H10T            5.5539814402        9.1131026024      -12.7243803179  MEMB      103             0.0000000000
     12727       103  23SM      C11S            4.1743533865        7.7905185008      -11.6926881442  MEMB      103             0.0000000000
     12728       103  23SM      H11S            4.6231636892        6.8839912067      -12.1546170705  MEMB      103             0.0000000000
     12729       103  23SM      H11T            3.0746070579        7.6310550817      -11.6284530424  MEMB      103             0.0000000000
     12730       103  23SM      C12S            4.7282201298        7.9810307852      -10.2669275154  MEMB      103             0.0000000000
     12731       103  23SM      H12S            4.2838140790        8.9126219865       -9.8474854119  MEMB      103             0.0000000000
     12732       103  23SM      H12T            5.8308629580        8.1246334568      -10.3143454995  MEMB      103             0.0000000000
     12733       103  23SM      C13S            4.4135908337        6.8255094287       -9.3007285077  MEMB      103             0.0000000000
     12734       103  23SM      H13S            4.9728855627        5.9172538081       -9.6138759270  MEMB      103             0.0000000000
     12735       103  23SM      H13T            3.3264595216        6.5921072094       -9.3602558519  MEMB      103             0.0000000000
     12736       103  23SM      C14S            4.7572084364        7.1745353599       -7.8408325035  MEMB      103             0.0000000000
     12737       103  23SM      H14S            4.1891274094        8.0894573384       -7.5564438910  MEMB      103             0.0000000000
     12738       103  23SM      H14T            5.8407479222        7.4117128208       -7.7596980488  MEMB      103             0.0000000000
     12739       103  23SM      C15S            4.4065522630        6.0611639272       -6.8404276210  MEMB      103             0.0000000000
     12740       103  23SM      H15S            5.0410375604        5.1687612439       -7.0375603383  MEMB      103             0.0000000000
     12741       103  23SM      H15T            3.3445898572        5.7637647571       -6.9933720546  MEMB      103             0.0000000000
     12742       103  23SM      C16S            4.5874475880        6.5003749089       -5.3778070355  MEMB      103             0.0000000000
     12743       103  23SM      H16S            4.0227407153        7.4454897163       -5.2076763528  MEMB      103             0.0000000000
     12744       103  23SM      H16T            5.6638036889        6.7112601002       -5.1910446121  MEMB      103             0.0000000000
     12745       103  23SM      C17S            4.0957917096        5.4500892718       -4.3715707497  MEMB      103             0.0000000000
     12746       103  23SM      H17S            4.6070074130        4.4835442372       -4.5839456578  MEMB      103             0.0000000000
     12747       103  23SM      H17T            3.0027879280        5.2906841206       -4.5233592527  MEMB      103             0.0000000000
     12748       103  23SM      C18S            4.3534503941        5.8437010174       -2.9148856506  MEMB      103             0.0000000000
     12749       103  23SM      H18S            5.4372954083        6.0277009479       -2.7608765773  MEMB      103             0.0000000000
     12750       103  23SM      H18T            4.0376451104        5.0320870088       -2.2240433897  MEMB      103             0.0000000000
     12751       103  23SM      H18U            3.7975188342        6.7686644702       -2.6506600940  MEMB      103             0.0000000000
     12752       103  23SM      C1F            -0.7533683915        7.2238613497      -20.7891602262  MEMB      103             0.0000000000
     12753       103  23SM      OF             -0.2192639303        6.3062953362      -21.3864789633  MEMB      103             0.0000000000
     12754       103  23SM      C2F            -2.1392827692        7.1071127818      -20.2582279331  MEMB      103             0.0000000000
     12755       103  23SM      H2F            -2.6993548283        6.6123375320      -21.0803059391  MEMB      103             0.0000000000
     12756       103  23SM      H2G            -2.5620616439        8.1222095413      -20.1319027453  MEMB      103             0.0000000000
     12757       103  23SM      C3F            -2.3193422198        6.2644186240      -18.9643656226  MEMB      103             0.0000000000
     12758       103  23SM      H3F            -2.1875511811        5.1857009408      -19.2148207400  MEMB      103             0.0000000000
     12759       103  23SM      H3G            -3.3750325413        6.3989565161      -18.6273978306  MEMB      103             0.0000000000
     12760       103  23SM      C4F            -1.4238161915        6.5563907707      -17.7400829690  MEMB      103             0.0000000000
     12761       103  23SM      H4F            -0.4929618569        5.9494634272      -17.8119652935  MEMB      103             0.0000000000
     12762       103  23SM      H4G            -1.9643575623        6.1938827979      -16.8327727790  MEMB      103             0.0000000000
     12763       103  23SM      C5F            -1.0343493412        8.0193815152      -17.4900848244  MEMB      103             0.0000000000
     12764       103  23SM      H5F            -0.3568976475        8.3553784246      -18.2892320317  MEMB      103             0.0000000000
     12765       103  23SM      H5G            -0.4194439324        8.0693152144      -16.5636787248  MEMB      103             0.0000000000
     12766       103  23SM      C6F            -2.2120944936        8.9880577856      -17.3623552882  MEMB      103             0.0000000000
     12767       103  23SM      H6F            -2.8721195063        8.9526150930      -18.2538978934  MEMB      103             0.0000000000
     12768       103  23SM      H6G            -1.8012127299       10.0215458280      -17.2956785017  MEMB      103             0.0000000000
     12769       103  23SM      C7F            -3.0594331097        8.7277580784      -16.1117661875  MEMB      103             0.0000000000
     12770       103  23SM      H7F            -3.6189413741        7.7703121115      -16.1965939797  MEMB      103             0.0000000000
     12771       103  23SM      H7G            -3.7993717422        9.5450870244      -16.0744793672  MEMB      103             0.0000000000
     12772       103  23SM      C8F            -2.2398806045        8.7322695930      -14.8109160188  MEMB      103             0.0000000000
     12773       103  23SM      H8F            -1.5691591294        9.6148673647      -14.8424418211  MEMB      103             0.0000000000
     12774       103  23SM      H8G            -1.6010837118        7.8254604355      -14.7758456871  MEMB      103             0.0000000000
     12775       103  23SM      C9F            -3.0848387476        8.8012899014      -13.5311109488  MEMB      103             0.0000000000
     12776       103  23SM      H9F            -4.1583449665        8.8265336411      -13.8143138765  MEMB      103             0.0000000000
     12777       103  23SM      H9G            -2.8992932404        9.7431623749      -13.0042356009  MEMB      103             0.0000000000
     12778       103  23SM      C10F           -2.8398864334        7.6982034671      -12.4857970873  MEMB      103             0.0000000000
     12779       103  23SM      H10F           -3.2234438973        6.7457387511      -12.9143237305  MEMB      103             0.0000000000
     12780       103  23SM      H10G           -3.4427686144        7.9499784146      -11.5865617749  MEMB      103             0.0000000000
     12781       103  23SM      C11F           -1.4062049400        7.5072362404      -11.9551659093  MEMB      103             0.0000000000
     12782       103  23SM      H11F           -0.6674732297        7.6177499209      -12.7754249385  MEMB      103             0.0000000000
     12783       103  23SM      H11G           -1.3439727484        6.4560836004      -11.5894898884  MEMB      103             0.0000000000
     12784       103  23SM      C12F           -1.0489476923        8.4278980027      -10.7664177095  MEMB      103             0.0000000000
     12785       103  23SM      H12F           -1.9760197726        8.9162489369      -10.3895658304  MEMB      103             0.0000000000
     12786       103  23SM      H12G           -0.3897573045        9.2357501845      -11.1493265005  MEMB      103             0.0000000000
     12787       103  23SM      C13F           -0.3771280466        7.7133867272       -9.5644023862  MEMB      103             0.0000000000
     12788       103  23SM      H13F            0.4475596663        7.0649527449       -9.9310030321  MEMB      103             0.0000000000
     12789       103  23SM      H13G           -1.1413779443        7.0685467979       -9.0789927678  MEMB      103             0.0000000000
     12790       103  23SM      C14F            0.1890868848        8.7059912779       -8.5241949058  MEMB      103             0.0000000000
     12791       103  23SM      H14F           -0.5496195658        9.5260609446       -8.4667053795  MEMB      103             0.0000000000
     12792       103  23SM      H14G            1.1372477859        9.1332524773       -8.9257491644  MEMB      103             0.0000000000
     12793       103  23SM      C15F            0.4442341377        8.2175035260       -7.0727570449  MEMB      103             0.0000000000
     12794       103  23SM      H15F            0.9346360892        9.0523884165       -6.5238151838  MEMB      103             0.0000000000
     12795       103  23SM      H15G            1.1632685296        7.3717716061       -7.0796696727  MEMB      103             0.0000000000
     12796       103  23SM      C16F           -0.8214721307        7.8413743205       -6.2711717101  MEMB      103             0.0000000000
     12797       103  23SM      H16F           -1.2307358382        6.9148897610       -6.7374332070  MEMB      103             0.0000000000
     12798       103  23SM      H16G           -1.5919659386        8.6276098076       -6.3973490932  MEMB      103             0.0000000000
     12799       103  23SM      C17F           -0.6101459103        7.5393305258       -4.7590452605  MEMB      103             0.0000000000
     12800       103  23SM      H17F            0.1663245069        6.7415024749       -4.7072886924  MEMB      103             0.0000000000
     12801       103  23SM      H17G           -1.5520159118        7.1073031256       -4.3516353883  MEMB      103             0.0000000000
     12802       103  23SM      C18F           -0.1490541943        8.6717458799       -3.7952715293  MEMB      103             0.0000000000
     12803       103  23SM      H18F            0.7028423215        9.2178594316       -4.2384838358  MEMB      103             0.0000000000
     12804       103  23SM      H18G            0.2518463959        8.1604818210       -2.8887293945  MEMB      103             0.0000000000
     12805       103  23SM      C19F           -1.2600974766        9.6213897981       -3.2839406923  MEMB      103             0.0000000000
     12806       103  23SM      H19F           -2.0178952518        8.9985066878       -2.7572969091  MEMB      103             0.0000000000
     12807       103  23SM      H19G           -1.7668388583       10.0887560383       -4.1560626716  MEMB      103             0.0000000000
     12808       103  23SM      C20F           -0.8462773076       10.7487076328       -2.2964460944  MEMB      103             0.0000000000
     12809       103  23SM      H20F           -1.7901467560       11.1909754611       -1.8973185949  MEMB      103             0.0000000000
     12810       103  23SM      H20G           -0.3305298122       11.5655889763       -2.8435571431  MEMB      103             0.0000000000
     12811       103  23SM      C21F            0.0073432830       10.3062008012       -1.0854633287  MEMB      103             0.0000000000
     12812       103  23SM      H21F            0.9258267964        9.7826718585       -1.4144927902  MEMB      103             0.0000000000
     12813       103  23SM      H21G           -0.5937572872        9.5545328344       -0.5317864539  MEMB      103             0.0000000000
     12814       103  23SM      C22F            0.4035368792       11.4589922179       -0.1282192727  MEMB      103             0.0000000000
     12815       103  23SM      H22F           -0.5012770973       12.0620074128        0.0511378825  MEMB      103             0.0000000000
     12816       103  23SM      H22G            1.1171689059       12.1746481718       -0.5625123096  MEMB      103             0.0000000000
     12817       103  23SM      C23F            1.0050666105       11.0186531630        1.2055434020  MEMB      103             0.0000000000
     12818       103  23SM      H23F            0.4453098601       10.1492810336        1.5658868176  MEMB      103             0.0000000000
     12819       103  23SM      H23G            0.9190859540       11.8130395989        1.9779098643  MEMB      103             0.0000000000
     12820       103  23SM      H23H            2.0652258093       10.7108408169        1.0994329611  MEMB      103             0.0000000000
     12821       104  DOPC      N               0.5989240199       -9.5560241362      -19.0543928804  MEMB      104             0.0000000000
     12822       104  DOPC      C12            -0.4037959910       -8.6524105142      -18.3436598348  MEMB      104             0.0000000000
     12823       104  DOPC      H12A            0.1321479988       -7.8947928843      -17.7626233499  MEMB      104             0.0000000000
     12824       104  DOPC      H12B           -0.9985612376       -9.2348354145      -17.6607150452  MEMB      104             0.0000000000
     12825       104  DOPC      C13            -0.1221435494      -10.3501870357      -20.0998716110  MEMB      104             0.0000000000
     12826       104  DOPC      H13A           -0.8820118639      -11.0088838907      -19.6882060896  MEMB      104             0.0000000000
     12827       104  DOPC      H13B           -0.6432759729       -9.6371856041      -20.7417926139  MEMB      104             0.0000000000
     12828       104  DOPC      H13C            0.5503475860      -10.8951446976      -20.7514250729  MEMB      104             0.0000000000
     12829       104  DOPC      C14             1.3043197762      -10.4628862769      -18.1024172553  MEMB      104             0.0000000000
     12830       104  DOPC      H14A            0.6047538115      -11.1303622884      -17.6159267420  MEMB      104             0.0000000000
     12831       104  DOPC      H14B            2.0524162058      -11.0478752233      -18.6346076276  MEMB      104             0.0000000000
     12832       104  DOPC      H14C            1.8241058354       -9.8983808470      -17.3368430910  MEMB      104             0.0000000000
     12833       104  DOPC      C15             1.6015094315       -8.6586208863      -19.7192844016  MEMB      104             0.0000000000
     12834       104  DOPC      H15A            2.3799677489       -9.1975037227      -20.2469843530  MEMB      104             0.0000000000
     12835       104  DOPC      H15B            2.0556408917       -7.9915914460      -18.9950210950  MEMB      104             0.0000000000
     12836       104  DOPC      H15C            1.0672864627       -7.9911686499      -20.4006217492  MEMB      104             0.0000000000
     12837       104  DOPC      C11            -1.3842527836       -7.8567052522      -19.2468781226  MEMB      104             0.0000000000
     12838       104  DOPC      H11A           -1.9396237904       -8.5286369062      -19.9335646470  MEMB      104             0.0000000000
     12839       104  DOPC      H11B           -2.1793755415       -7.4101884206      -18.5955053853  MEMB      104             0.0000000000
     12840       104  DOPC      P              -0.5497966236       -5.4310134417      -19.3736410547  MEMB      104             0.0000000000
     12841       104  DOPC      O13            -1.8787261751       -4.7812215755      -19.3824822735  MEMB      104             0.0000000000
     12842       104  DOPC      O14             0.6076059526       -4.7347412697      -19.9864067515  MEMB      104             0.0000000000
     12843       104  DOPC      O12            -0.6826976938       -6.8693326250      -20.0133617298  MEMB      104             0.0000000000
     12844       104  DOPC      O11            -0.1905278726       -5.8454120850      -17.8921205902  MEMB      104             0.0000000000
     12845       104  DOPC      C1              0.4562184039       -4.8965058884      -17.0496088372  MEMB      104             0.0000000000
     12846       104  DOPC      HA              0.0474160212       -5.0216876004      -16.0263043290  MEMB      104             0.0000000000
     12847       104  DOPC      HB              0.2533527481       -3.8362057018      -17.3438232830  MEMB      104             0.0000000000
     12848       104  DOPC      C2              1.9941145062       -5.1078286350      -16.9943305013  MEMB      104             0.0000000000
     12849       104  DOPC      HS              2.4015756589       -4.9627668717      -18.0237819018  MEMB      104             0.0000000000
     12850       104  DOPC      O21             2.2788592204       -6.4365387184      -16.5301192655  MEMB      104             0.0000000000
     12851       104  DOPC      C21             3.5384976628       -6.8453948429      -16.5716893859  MEMB      104             0.0000000000
     12852       104  DOPC      O22             4.4879627263       -6.2573013512      -17.0519147320  MEMB      104             0.0000000000
     12853       104  DOPC      C22             3.6190242486       -8.2355029566      -15.9395711817  MEMB      104             0.0000000000
     12854       104  DOPC      H2R             4.6279023199       -8.3308634725      -15.4924542563  MEMB      104             0.0000000000
     12855       104  DOPC      H2S             3.5051276509       -8.9877068244      -16.7416541513  MEMB      104             0.0000000000
     12856       104  DOPC      C3              2.5989039198       -4.0196250290      -16.0715143284  MEMB      104             0.0000000000
     12857       104  DOPC      HX              2.4687031954       -3.0941257348      -16.6651983589  MEMB      104             0.0000000000
     12858       104  DOPC      HY              3.6860877361       -4.1859174751      -15.9137949888  MEMB      104             0.0000000000
     12859       104  DOPC      O31             1.8595474935       -3.8218868310      -14.8504244160  MEMB      104             0.0000000000
     12860       104  DOPC      C31             2.2925193188       -4.4528846293      -13.7743926253  MEMB      104             0.0000000000
     12861       104  DOPC      O32             3.2571899520       -5.1867461867      -13.7060022920  MEMB      104             0.0000000000
     12862       104  DOPC      C32             1.3844718282       -4.0825464031      -12.6007531786  MEMB      104             0.0000000000
     12863       104  DOPC      H2X             1.8850664061       -4.3991229025      -11.6656031717  MEMB      104             0.0000000000
     12864       104  DOPC      H2Y             1.2865631269       -2.9763977959      -12.5841403222  MEMB      104             0.0000000000
     12865       104  DOPC      C23             2.5428450640       -8.4098525567      -14.8501564712  MEMB      104             0.0000000000
     12866       104  DOPC      H3R             1.5187860650       -8.3759989685      -15.2854508515  MEMB      104             0.0000000000
     12867       104  DOPC      H3S             2.6199070978       -7.5418739633      -14.1510539863  MEMB      104             0.0000000000
     12868       104  DOPC      C24             2.6812586800       -9.6722299460      -14.0036087065  MEMB      104             0.0000000000
     12869       104  DOPC      H4R             3.7387342896       -9.7997114382      -13.6793011504  MEMB      104             0.0000000000
     12870       104  DOPC      H4S             2.3832250779      -10.5683212774      -14.5900088466  MEMB      104             0.0000000000
     12871       104  DOPC      C25             1.8010529861       -9.5463615058      -12.7567805950  MEMB      104             0.0000000000
     12872       104  DOPC      H5R             0.7340857035       -9.4678352324      -13.0658552660  MEMB      104             0.0000000000
     12873       104  DOPC      H5S             2.0686616574       -8.6038543625      -12.2239415264  MEMB      104             0.0000000000
     12874       104  DOPC      C26             1.9604852782      -10.7170151122      -11.7823689541  MEMB      104             0.0000000000
     12875       104  DOPC      H6R             2.9605425801      -10.6637326576      -11.2993779081  MEMB      104             0.0000000000
     12876       104  DOPC      H6S             1.9128142695      -11.6709363412      -12.3547930403  MEMB      104             0.0000000000
     12877       104  DOPC      C27             0.8579111037      -10.7403186196      -10.7113372199  MEMB      104             0.0000000000
     12878       104  DOPC      H7R             1.0121094338      -11.6067667221      -10.0306451199  MEMB      104             0.0000000000
     12879       104  DOPC      H7S            -0.0958130060      -10.9145738977      -11.2547152989  MEMB      104             0.0000000000
     12880       104  DOPC      C28             0.6993153581       -9.4421131231       -9.8907624332  MEMB      104             0.0000000000
     12881       104  DOPC      H8R            -0.2182514296       -9.5482924255       -9.2681819653  MEMB      104             0.0000000000
     12882       104  DOPC      H8S             0.4919240370       -8.5994692043      -10.5852989848  MEMB      104             0.0000000000
     12883       104  DOPC      C29             1.8780088553       -9.1813332574       -8.9835524403  MEMB      104             0.0000000000
     12884       104  DOPC      H9R             2.1240195541      -10.0235753004       -8.3189374784  MEMB      104             0.0000000000
     12885       104  DOPC      C210            2.6352385709       -8.0675693582       -8.9122857638  MEMB      104             0.0000000000
     12886       104  DOPC      H10R            3.4580762511       -8.0396360385       -8.1803629227  MEMB      104             0.0000000000
     12887       104  DOPC      C211            2.4857869456       -6.8042230735       -9.7285609834  MEMB      104             0.0000000000
     12888       104  DOPC      H11R            1.8057857270       -6.9583460943      -10.5974840603  MEMB      104             0.0000000000
     12889       104  DOPC      H11S            3.4641716053       -6.5068220810      -10.1658036546  MEMB      104             0.0000000000
     12890       104  DOPC      C212            1.9201772662       -5.6219955503       -8.9127781964  MEMB      104             0.0000000000
     12891       104  DOPC      H12R            0.9063325496       -5.9057929900       -8.5628474002  MEMB      104             0.0000000000
     12892       104  DOPC      H12S            1.7861911629       -4.7546964834       -9.5940230872  MEMB      104             0.0000000000
     12893       104  DOPC      C213            2.7736341060       -5.1592252065       -7.7141800878  MEMB      104             0.0000000000
     12894       104  DOPC      H13R            3.8489531467       -5.1705086065       -8.0002486466  MEMB      104             0.0000000000
     12895       104  DOPC      H13S            2.6378644484       -5.8707379534       -6.8696799394  MEMB      104             0.0000000000
     12896       104  DOPC      C214            2.4078009872       -3.7336423803       -7.2544167494  MEMB      104             0.0000000000
     12897       104  DOPC      H14R            1.3086607359       -3.5906709497       -7.3074968028  MEMB      104             0.0000000000
     12898       104  DOPC      H14S            2.8405478320       -3.0230214620       -7.9912078639  MEMB      104             0.0000000000
     12899       104  DOPC      C215            2.8800340474       -3.3688394336       -5.8289125013  MEMB      104             0.0000000000
     12900       104  DOPC      H15R            3.0959320513       -2.2768772059       -5.7846234183  MEMB      104             0.0000000000
     12901       104  DOPC      H15S            3.8091966636       -3.9176477611       -5.5655708100  MEMB      104             0.0000000000
     12902       104  DOPC      C216            1.7944487337       -3.6276442663       -4.7888045273  MEMB      104             0.0000000000
     12903       104  DOPC      H16R            1.5772327336       -4.7170702054       -4.7918389301  MEMB      104             0.0000000000
     12904       104  DOPC      H16S            0.8935155228       -3.0646826653       -5.1333687905  MEMB      104             0.0000000000
     12905       104  DOPC      C217            2.0949093987       -3.1725290778       -3.3567573536  MEMB      104             0.0000000000
     12906       104  DOPC      H17R            1.1188390099       -2.9213712598       -2.8740314951  MEMB      104             0.0000000000
     12907       104  DOPC      H17S            2.7029631298       -2.2412542411       -3.3758253335  MEMB      104             0.0000000000
     12908       104  DOPC      C218            2.7706149808       -4.2455157160       -2.5013057103  MEMB      104             0.0000000000
     12909       104  DOPC      H18R            2.1499771564       -5.1683355757       -2.4790378984  MEMB      104             0.0000000000
     12910       104  DOPC      H18S            2.9029373925       -3.8887655710       -1.4570351372  MEMB      104             0.0000000000
     12911       104  DOPC      H18T            3.7686302236       -4.5023995049       -2.9159982311  MEMB      104             0.0000000000
     12912       104  DOPC      C33            -0.0112425961       -4.7377840778      -12.7324685240  MEMB      104             0.0000000000
     12913       104  DOPC      H3X            -0.0620597139       -5.6412760932      -12.0869503181  MEMB      104             0.0000000000
     12914       104  DOPC      H3Y            -0.1714609065       -5.0976506322      -13.7746383398  MEMB      104             0.0000000000
     12915       104  DOPC      C34            -1.1641198944       -3.7661641507      -12.4323089193  MEMB      104             0.0000000000
     12916       104  DOPC      H4X            -2.1301554200       -4.2445189954      -12.7163080671  MEMB      104             0.0000000000
     12917       104  DOPC      H4Y            -1.0401426330       -2.8718647748      -13.0813272607  MEMB      104             0.0000000000
     12918       104  DOPC      C35            -1.2538947232       -3.3227659456      -10.9676648232  MEMB      104             0.0000000000
     12919       104  DOPC      H5X            -2.0505534182       -2.5535443250      -10.8681992164  MEMB      104             0.0000000000
     12920       104  DOPC      H5Y            -0.2942571382       -2.8547525319      -10.6567263316  MEMB      104             0.0000000000
     12921       104  DOPC      C36            -1.5945741538       -4.4809877567      -10.0284142444  MEMB      104             0.0000000000
     12922       104  DOPC      H6X            -2.6036802047       -4.8797026115      -10.2693207311  MEMB      104             0.0000000000
     12923       104  DOPC      H6Y            -0.8608631452       -5.3032867586      -10.1827316761  MEMB      104             0.0000000000
     12924       104  DOPC      C37            -1.5319632892       -4.0924489403       -8.5499981487  MEMB      104             0.0000000000
     12925       104  DOPC      H7X            -0.5514507596       -3.5918421083       -8.3884170982  MEMB      104             0.0000000000
     12926       104  DOPC      H7Y            -2.3180204179       -3.3453792182       -8.3026299592  MEMB      104             0.0000000000
     12927       104  DOPC      C38            -1.6732503936       -5.3432145387       -7.6623528064  MEMB      104             0.0000000000
     12928       104  DOPC      H8X            -1.4242551846       -6.2388620608       -8.2728918436  MEMB      104             0.0000000000
     12929       104  DOPC      H8Y            -2.7436237541       -5.4542050878       -7.3773511317  MEMB      104             0.0000000000
     12930       104  DOPC      C39            -0.7668621563       -5.3415896901       -6.4629376771  MEMB      104             0.0000000000
     12931       104  DOPC      H9X             0.2596748504       -5.7008929827       -6.6278781931  MEMB      104             0.0000000000
     12932       104  DOPC      C310           -1.0883876094       -4.8879315961       -5.2516382805  MEMB      104             0.0000000000
     12933       104  DOPC      H10X           -0.3606981106       -4.9362656478       -4.4304624848  MEMB      104             0.0000000000
     12934       104  DOPC      C311           -2.3937332770       -4.2975664794       -4.8585857430  MEMB      104             0.0000000000
     12935       104  DOPC      H11X           -3.0117824046       -3.9741934762       -5.7261528995  MEMB      104             0.0000000000
     12936       104  DOPC      H11Y           -2.1950249527       -3.4076639241       -4.2281293410  MEMB      104             0.0000000000
     12937       104  DOPC      C312           -3.1676330451       -5.2600209503       -3.9748784868  MEMB      104             0.0000000000
     12938       104  DOPC      H12X           -2.5189492714       -5.5236243610       -3.1133355086  MEMB      104             0.0000000000
     12939       104  DOPC      H12Y           -3.3731786853       -6.2097852855       -4.5026766425  MEMB      104             0.0000000000
     12940       104  DOPC      C313           -4.4315766859       -4.5310579647       -3.5160771187  MEMB      104             0.0000000000
     12941       104  DOPC      H13X           -4.1250960413       -3.4967966739       -3.2406601947  MEMB      104             0.0000000000
     12942       104  DOPC      H13Y           -5.1414788248       -4.4579875104       -4.3681977956  MEMB      104             0.0000000000
     12943       104  DOPC      C314           -5.1440711621       -5.1068511292       -2.2993733820  MEMB      104             0.0000000000
     12944       104  DOPC      H14X           -5.8269073013       -4.3265275123       -1.8912948706  MEMB      104             0.0000000000
     12945       104  DOPC      H14Y           -5.7840062260       -5.9437338563       -2.6346898733  MEMB      104             0.0000000000
     12946       104  DOPC      C315           -4.1962151839       -5.5964017432       -1.1970684154  MEMB      104             0.0000000000
     12947       104  DOPC      H15X           -3.6371426085       -6.4893893761       -1.5475942558  MEMB      104             0.0000000000
     12948       104  DOPC      H15Y           -4.8230512294       -5.9422171772       -0.3530309054  MEMB      104             0.0000000000
     12949       104  DOPC      C316           -3.2148772995       -4.5325053034       -0.6731220551  MEMB      104             0.0000000000
     12950       104  DOPC      H16X           -2.4775331556       -4.2385419258       -1.4479375515  MEMB      104             0.0000000000
     12951       104  DOPC      H16Y           -3.7981478653       -3.6179056851       -0.4196211676  MEMB      104             0.0000000000
     12952       104  DOPC      C317           -2.4773492317       -5.0086822909        0.5854845917  MEMB      104             0.0000000000
     12953       104  DOPC      H17X           -2.1958660976       -4.1181625357        1.1922308653  MEMB      104             0.0000000000
     12954       104  DOPC      H17Y           -3.1856957609       -5.6140729875        1.1894400759  MEMB      104             0.0000000000
     12955       104  DOPC      C318           -1.2281448892       -5.8552064016        0.3408823274  MEMB      104             0.0000000000
     12956       104  DOPC      H18X           -0.4816176624       -5.2927063168       -0.2586804023  MEMB      104             0.0000000000
     12957       104  DOPC      H18Y           -0.7665445943       -6.1293833984        1.3153025693  MEMB      104             0.0000000000
     12958       104  DOPC      H18Z           -1.4955081848       -6.7898672850       -0.1967937175  MEMB      104             0.0000000000
     12959       105  DOPC      N              -6.5189078921        5.9473803327      -20.5076306422  MEMB      105             0.0000000000
     12960       105  DOPC      C12            -6.7074600748        5.7010481620      -19.0063951154  MEMB      105             0.0000000000
     12961       105  DOPC      H12A           -6.4500121140        6.6147767295      -18.4670594503  MEMB      105             0.0000000000
     12962       105  DOPC      H12B           -6.0144558723        4.9448874657      -18.6726197036  MEMB      105             0.0000000000
     12963       105  DOPC      C13            -7.2589059868        4.9702327328      -21.3920754039  MEMB      105             0.0000000000
     12964       105  DOPC      H13A           -6.8403277328        3.9693995601      -21.3933488445  MEMB      105             0.0000000000
     12965       105  DOPC      H13B           -8.2916094488        4.8757379444      -21.0807190213  MEMB      105             0.0000000000
     12966       105  DOPC      H13C           -7.2400298506        5.2910240151      -22.4374855386  MEMB      105             0.0000000000
     12967       105  DOPC      C14            -5.0750745067        5.8358116910      -20.8238309099  MEMB      105             0.0000000000
     12968       105  DOPC      H14A           -4.7091478564        4.8371294063      -20.6063161902  MEMB      105             0.0000000000
     12969       105  DOPC      H14B           -4.8876274239        6.0393174260      -21.8732918490  MEMB      105             0.0000000000
     12970       105  DOPC      H14C           -4.4771260520        6.5249430311      -20.2369157276  MEMB      105             0.0000000000
     12971       105  DOPC      C15            -7.0489722356        7.3125852439      -20.8303641018  MEMB      105             0.0000000000
     12972       105  DOPC      H15A           -6.6455996177        8.0606101390      -20.1530938967  MEMB      105             0.0000000000
     12973       105  DOPC      H15B           -8.1183342399        7.3042318516      -20.6304050903  MEMB      105             0.0000000000
     12974       105  DOPC      H15C           -6.8738115345        7.5927821841      -21.8648203049  MEMB      105             0.0000000000
     12975       105  DOPC      C11            -8.1023727433        5.3183334984      -18.4803137061  MEMB      105             0.0000000000
     12976       105  DOPC      H11A           -8.4378804193        4.3736620730      -18.9672306242  MEMB      105             0.0000000000
     12977       105  DOPC      H11B           -8.0420219835        5.1028747100      -17.3836510461  MEMB      105             0.0000000000
     12978       105  DOPC      P              -9.2655557580        7.5852523350      -17.7704162887  MEMB      105             0.0000000000
     12979       105  DOPC      O13            -9.4941012724        7.1158382120      -16.3835308215  MEMB      105             0.0000000000
     12980       105  DOPC      O14           -10.3009617707        8.4169068329      -18.4347629707  MEMB      105             0.0000000000
     12981       105  DOPC      O12            -9.0196282588        6.3580658059      -18.7553001956  MEMB      105             0.0000000000
     12982       105  DOPC      O11            -7.9125945155        8.4215995523      -17.8058959387  MEMB      105             0.0000000000
     12983       105  DOPC      C1             -7.8504349451        9.5563861605      -16.9110808120  MEMB      105             0.0000000000
     12984       105  DOPC      HA             -8.7606018778        9.7227044401      -16.2766758824  MEMB      105             0.0000000000
     12985       105  DOPC      HB             -7.7333041970       10.4798008756      -17.5177702333  MEMB      105             0.0000000000
     12986       105  DOPC      C2             -6.6386000233        9.4493267791      -15.9499562323  MEMB      105             0.0000000000
     12987       105  DOPC      HS             -5.8623700493        8.8511088388      -16.4816084630  MEMB      105             0.0000000000
     12988       105  DOPC      O21            -7.0446031724        8.8630684824      -14.6953823020  MEMB      105             0.0000000000
     12989       105  DOPC      C21            -6.6085007326        7.6325082163      -14.4505104596  MEMB      105             0.0000000000
     12990       105  DOPC      O22            -5.8795210697        6.9801872007      -15.1769828958  MEMB      105             0.0000000000
     12991       105  DOPC      C22            -7.0169054271        7.1942052540      -13.0402012182  MEMB      105             0.0000000000
     12992       105  DOPC      H2R            -6.8234209473        6.1025682180      -12.9569102609  MEMB      105             0.0000000000
     12993       105  DOPC      H2S            -8.0994999740        7.3805696054      -12.9029135612  MEMB      105             0.0000000000
     12994       105  DOPC      C3             -6.0047258867       10.8513180526      -15.6843697736  MEMB      105             0.0000000000
     12995       105  DOPC      HX             -5.7034025976       11.2551320144      -16.6725179542  MEMB      105             0.0000000000
     12996       105  DOPC      HY             -5.0814071831       10.7247492761      -15.0802457534  MEMB      105             0.0000000000
     12997       105  DOPC      O31            -6.9345314851       11.7654327193      -15.0780975325  MEMB      105             0.0000000000
     12998       105  DOPC      C31            -6.8884854530       11.7615124992      -13.7552817675  MEMB      105             0.0000000000
     12999       105  DOPC      O32            -5.9005879198       11.5785115183      -13.0662590379  MEMB      105             0.0000000000
     13000       105  DOPC      C32            -8.2991117760       11.9458657610      -13.2365134953  MEMB      105             0.0000000000
     13001       105  DOPC      H2X            -8.3269979961       12.7857988884      -12.5128378085  MEMB      105             0.0000000000
     13002       105  DOPC      H2Y            -8.9793878568       12.1686085788      -14.0873977345  MEMB      105             0.0000000000
     13003       105  DOPC      C23            -6.1641605883        7.9170901285      -11.9710068291  MEMB      105             0.0000000000
     13004       105  DOPC      H3R            -5.8794339340        8.9328542772      -12.3396247967  MEMB      105             0.0000000000
     13005       105  DOPC      H3S            -5.2564766945        7.3164577361      -11.7967379559  MEMB      105             0.0000000000
     13006       105  DOPC      C24            -6.8508163947        8.1329981000      -10.6279390941  MEMB      105             0.0000000000
     13007       105  DOPC      H4R            -7.8773733341        8.4571199696      -10.8908639012  MEMB      105             0.0000000000
     13008       105  DOPC      H4S            -6.3630031875        8.9864781520      -10.1041171203  MEMB      105             0.0000000000
     13009       105  DOPC      C25            -6.8450833506        6.9178764648       -9.6759838635  MEMB      105             0.0000000000
     13010       105  DOPC      H5R            -7.4320884165        6.0928391707      -10.1339914083  MEMB      105             0.0000000000
     13011       105  DOPC      H5S            -7.3716685521        7.1739453720       -8.7344218359  MEMB      105             0.0000000000
     13012       105  DOPC      C26            -5.4595114670        6.4042395820       -9.2364727934  MEMB      105             0.0000000000
     13013       105  DOPC      H6R            -4.9621139399        5.9223372095      -10.1026625935  MEMB      105             0.0000000000
     13014       105  DOPC      H6S            -5.6353843092        5.6023077931       -8.4821967941  MEMB      105             0.0000000000
     13015       105  DOPC      C27            -4.4862009227        7.4384327937       -8.6165879203  MEMB      105             0.0000000000
     13016       105  DOPC      H7R            -4.1153129353        8.1193548626       -9.4133343724  MEMB      105             0.0000000000
     13017       105  DOPC      H7S            -3.6075746004        6.8842058786       -8.2137979235  MEMB      105             0.0000000000
     13018       105  DOPC      C28            -5.0475106202        8.3045509112       -7.4761991831  MEMB      105             0.0000000000
     13019       105  DOPC      H8R            -5.7685868561        9.0125078366       -7.9281378652  MEMB      105             0.0000000000
     13020       105  DOPC      H8S            -4.2371094423        8.9355632448       -7.0515914000  MEMB      105             0.0000000000
     13021       105  DOPC      C29            -5.6999069300        7.4370942225       -6.4308535918  MEMB      105             0.0000000000
     13022       105  DOPC      H9R            -6.4861764791        6.7681088330       -6.8134875575  MEMB      105             0.0000000000
     13023       105  DOPC      C210           -5.5440657047        7.4900407893       -5.1040630728  MEMB      105             0.0000000000
     13024       105  DOPC      H10R           -6.1426212060        6.7915798266       -4.5008261706  MEMB      105             0.0000000000
     13025       105  DOPC      C211           -4.6808576988        8.4307255672       -4.3043112667  MEMB      105             0.0000000000
     13026       105  DOPC      H11R           -3.9813317055        9.0110662704       -4.9434728559  MEMB      105             0.0000000000
     13027       105  DOPC      H11S           -4.0578149272        7.8545952384       -3.5876526376  MEMB      105             0.0000000000
     13028       105  DOPC      C212           -5.5570626629        9.4261829117       -3.5196806241  MEMB      105             0.0000000000
     13029       105  DOPC      H12R           -6.0277690735       10.1435172052       -4.2324323810  MEMB      105             0.0000000000
     13030       105  DOPC      H12S           -4.9168321145       10.0206715138       -2.8331231744  MEMB      105             0.0000000000
     13031       105  DOPC      C213           -6.6824887514        8.7726135649       -2.7025451627  MEMB      105             0.0000000000
     13032       105  DOPC      H13R           -7.4226463025        8.3720262187       -3.4047875327  MEMB      105             0.0000000000
     13033       105  DOPC      H13S           -7.2167064149        9.5600974913       -2.1392521314  MEMB      105             0.0000000000
     13034       105  DOPC      C214           -6.2815039910        7.5846502554       -1.8178418976  MEMB      105             0.0000000000
     13035       105  DOPC      H14R           -5.7864514171        6.7978500193       -2.4237695974  MEMB      105             0.0000000000
     13036       105  DOPC      H14S           -7.2146575241        7.1373834980       -1.4069361698  MEMB      105             0.0000000000
     13037       105  DOPC      C215           -5.3689885521        7.9746758323       -0.6616422563  MEMB      105             0.0000000000
     13038       105  DOPC      H15R           -4.4664909485        8.4942399020       -1.0524297494  MEMB      105             0.0000000000
     13039       105  DOPC      H15S           -5.0411453569        7.0561709259       -0.1263705115  MEMB      105             0.0000000000
     13040       105  DOPC      C216           -6.1190126216        8.8677962476        0.3161660924  MEMB      105             0.0000000000
     13041       105  DOPC      H16R           -6.9991514192        8.3082371597        0.7053669716  MEMB      105             0.0000000000
     13042       105  DOPC      H16S           -6.4746073285        9.7751700664       -0.2113691416  MEMB      105             0.0000000000
     13043       105  DOPC      C217           -5.2816826053        9.3640046509        1.4723955976  MEMB      105             0.0000000000
     13044       105  DOPC      H17R           -4.9039067001       10.3747614321        1.1855572990  MEMB      105             0.0000000000
     13045       105  DOPC      H17S           -4.4386885262        8.6589740103        1.6438677573  MEMB      105             0.0000000000
     13046       105  DOPC      C218           -6.0707969591        9.5240477235        2.7432038474  MEMB      105             0.0000000000
     13047       105  DOPC      H18R           -6.1961693545        8.5421058284        3.2454872388  MEMB      105             0.0000000000
     13048       105  DOPC      H18S           -7.0545176436        9.9371431221        2.4549864868  MEMB      105             0.0000000000
     13049       105  DOPC      H18T           -5.6048041373       10.2351476111        3.4453830606  MEMB      105             0.0000000000
     13050       105  DOPC      C33            -8.7868952824       10.6635656527      -12.5620725623  MEMB      105             0.0000000000
     13051       105  DOPC      H3X            -8.2137518304       10.5335908972      -11.6210820366  MEMB      105             0.0000000000
     13052       105  DOPC      H3Y            -8.6047196573        9.7557935837      -13.1783861928  MEMB      105             0.0000000000
     13053       105  DOPC      C34           -10.2833989661       10.7598594328      -12.3175704628  MEMB      105             0.0000000000
     13054       105  DOPC      H4X           -10.8526411538       10.4568732530      -13.2265311956  MEMB      105             0.0000000000
     13055       105  DOPC      H4Y           -10.5453456111       11.8118483629      -12.0873417339  MEMB      105             0.0000000000
     13056       105  DOPC      C35           -10.7256323837        9.9361073936      -11.1339101599  MEMB      105             0.0000000000
     13057       105  DOPC      H5X           -10.4052953283        8.8747229346      -11.2619147339  MEMB      105             0.0000000000
     13058       105  DOPC      H5Y           -11.8294336944       10.0154830203      -11.0556746835  MEMB      105             0.0000000000
     13059       105  DOPC      C36           -10.2235555483       10.4814640716       -9.8137438482  MEMB      105             0.0000000000
     13060       105  DOPC      H6X            -9.1321768822       10.6151521947       -9.8886023315  MEMB      105             0.0000000000
     13061       105  DOPC      H6Y           -10.5873702158       11.5041078911       -9.6560572399  MEMB      105             0.0000000000
     13062       105  DOPC      C37           -10.5999929915        9.5177183413       -8.6836114062  MEMB      105             0.0000000000
     13063       105  DOPC      H7X           -10.8388863090       10.0182382934       -7.7232741658  MEMB      105             0.0000000000
     13064       105  DOPC      H7Y           -11.5052880073        8.9310516389       -8.9568116614  MEMB      105             0.0000000000
     13065       105  DOPC      C38            -9.4017354918        8.6126115369       -8.4939808336  MEMB      105             0.0000000000
     13066       105  DOPC      H8X            -9.1524673023        8.2356609167       -9.4964527106  MEMB      105             0.0000000000
     13067       105  DOPC      H8Y            -9.6181336192        7.6915927641       -7.9217210669  MEMB      105             0.0000000000
     13068       105  DOPC      C39            -8.3043441746        9.4688451056       -7.9033785250  MEMB      105             0.0000000000
     13069       105  DOPC      H9X            -7.6372305636        9.9915447408       -8.6073543584  MEMB      105             0.0000000000
     13070       105  DOPC      C310           -8.0678407292        9.5638125737       -6.6029214206  MEMB      105             0.0000000000
     13071       105  DOPC      H10X           -7.1906749618       10.1224364134       -6.2351972250  MEMB      105             0.0000000000
     13072       105  DOPC      C311           -8.8786689973        8.8086663709       -5.6052974710  MEMB      105             0.0000000000
     13073       105  DOPC      H11X           -8.2011435191        8.0837558943       -5.1267155741  MEMB      105             0.0000000000
     13074       105  DOPC      H11Y           -9.6765029081        8.1714656068       -6.0380346257  MEMB      105             0.0000000000
     13075       105  DOPC      C312           -9.5604854204        9.6947577019       -4.5758925242  MEMB      105             0.0000000000
     13076       105  DOPC      H12X          -10.3819601917       10.2814698621       -5.0484362319  MEMB      105             0.0000000000
     13077       105  DOPC      H12Y           -8.8221671426       10.4059148818       -4.1519687627  MEMB      105             0.0000000000
     13078       105  DOPC      C313          -10.1102336551        8.7637043865       -3.5063262898  MEMB      105             0.0000000000
     13079       105  DOPC      H13X          -10.9837299223        8.2303635234       -3.9517847450  MEMB      105             0.0000000000
     13080       105  DOPC      H13Y           -9.3749192161        7.9658833574       -3.2712128116  MEMB      105             0.0000000000
     13081       105  DOPC      C314          -10.5452038834        9.4143092518       -2.1977462289  MEMB      105             0.0000000000
     13082       105  DOPC      H14X          -11.5823686568        9.7642052173       -2.3876641763  MEMB      105             0.0000000000
     13083       105  DOPC      H14Y          -10.5654213963        8.6046617410       -1.4346662264  MEMB      105             0.0000000000
     13084       105  DOPC      C315           -9.8027916107       10.6080873996       -1.5911743707  MEMB      105             0.0000000000
     13085       105  DOPC      H15X          -10.5945017912       11.2799942081       -1.2045636444  MEMB      105             0.0000000000
     13086       105  DOPC      H15Y           -9.2255533352       11.1913755037       -2.3322048115  MEMB      105             0.0000000000
     13087       105  DOPC      C316           -8.9759772890       10.2555704080       -0.3581329124  MEMB      105             0.0000000000
     13088       105  DOPC      H16X           -8.6231110484        9.2048487483       -0.4665129855  MEMB      105             0.0000000000
     13089       105  DOPC      H16Y           -8.0906162089       10.9283554059       -0.3216524493  MEMB      105             0.0000000000
     13090       105  DOPC      C317           -9.7315906483       10.3943727431        0.9712099665  MEMB      105             0.0000000000
     13091       105  DOPC      H17X          -10.6076545370        9.7114781081        0.9597414663  MEMB      105             0.0000000000
     13092       105  DOPC      H17Y           -9.0513593477       10.0415647162        1.7690350344  MEMB      105             0.0000000000
     13093       105  DOPC      C318          -10.1856176175       11.8082049128        1.3492858698  MEMB      105             0.0000000000
     13094       105  DOPC      H18X          -10.5814034484       11.8127381998        2.3878235637  MEMB      105             0.0000000000
     13095       105  DOPC      H18Y           -9.3394148758       12.5245430562        1.2890639916  MEMB      105             0.0000000000
     13096       105  DOPC      H18Z          -10.9955780917       12.1519006891        0.6745628407  MEMB      105             0.0000000000
     13097       106  DOPE      N              -6.5945224128       -6.3091192921      -21.7356024669  MEMB      106             0.0000000000
     13098       106  DOPE      HN1            -6.7652581277       -7.1302117873      -22.3490315748  MEMB      106             0.0000000000
     13099       106  DOPE      HN2            -7.5241636262       -5.9244788483      -21.4602209972  MEMB      106             0.0000000000
     13100       106  DOPE      HN3            -6.0125436319       -5.5785266228      -22.2033025773  MEMB      106             0.0000000000
     13101       106  DOPE      C12            -5.9050650582       -6.7490150471      -20.4744545433  MEMB      106             0.0000000000
     13102       106  DOPE      H12A           -5.1228802468       -6.0023378445      -20.2280324446  MEMB      106             0.0000000000
     13103       106  DOPE      H12B           -5.4208947285       -7.7248535704      -20.6664219487  MEMB      106             0.0000000000
     13104       106  DOPE      C11            -6.9347673460       -6.8533814513      -19.3468483945  MEMB      106             0.0000000000
     13105       106  DOPE      H11A           -7.3540177428       -5.8402298765      -19.1556063562  MEMB      106             0.0000000000
     13106       106  DOPE      H11B           -6.4243062317       -7.1842538934      -18.4119770670  MEMB      106             0.0000000000
     13107       106  DOPE      P              -9.4470513439       -7.6477390510      -19.2128223608  MEMB      106             0.0000000000
     13108       106  DOPE      O13           -10.3041537871       -8.2969770238      -20.2328301443  MEMB      106             0.0000000000
     13109       106  DOPE      O14            -9.6946325327       -6.2225642972      -18.9085942757  MEMB      106             0.0000000000
     13110       106  DOPE      O11            -9.4756645834       -8.4792650985      -17.9106228268  MEMB      106             0.0000000000
     13111       106  DOPE      O12            -7.9499309695       -7.7708578092      -19.7211526213  MEMB      106             0.0000000000
     13112       106  DOPE      C1             -8.4020268952       -9.3514761942      -17.5962155575  MEMB      106             0.0000000000
     13113       106  DOPE      HA             -7.3960259508       -8.9901159436      -17.9006335265  MEMB      106             0.0000000000
     13114       106  DOPE      HB             -8.5556474461      -10.3459769210      -18.0748511060  MEMB      106             0.0000000000
     13115       106  DOPE      C2             -8.3168854343       -9.4481185337      -16.0783508407  MEMB      106             0.0000000000
     13116       106  DOPE      HS             -7.6577552784      -10.2968681416      -15.8475204811  MEMB      106             0.0000000000
     13117       106  DOPE      O21            -9.5691461418       -9.6911699760      -15.4790433533  MEMB      106             0.0000000000
     13118       106  DOPE      C21           -10.1495336235      -10.7891248380      -15.8479073322  MEMB      106             0.0000000000
     13119       106  DOPE      O22            -9.6770665214      -11.7117601696      -16.4916893220  MEMB      106             0.0000000000
     13120       106  DOPE      C22           -11.4454394114      -10.8006047863      -15.0736247635  MEMB      106             0.0000000000
     13121       106  DOPE      H2R           -11.8732548496      -11.8043125542      -15.2825860881  MEMB      106             0.0000000000
     13122       106  DOPE      H2S           -12.1526206024      -10.0286157366      -15.4299226854  MEMB      106             0.0000000000
     13123       106  DOPE      C3             -7.7341132850       -8.1811587286      -15.4049542910  MEMB      106             0.0000000000
     13124       106  DOPE      HX             -6.7213864271       -7.9641678671      -15.8081194760  MEMB      106             0.0000000000
     13125       106  DOPE      HY             -7.6619828133       -8.4891685458      -14.3360741487  MEMB      106             0.0000000000
     13126       106  DOPE      O31            -8.5925980767       -7.0214407961      -15.4857829776  MEMB      106             0.0000000000
     13127       106  DOPE      C31            -8.2589922892       -6.1687220829      -14.5296091793  MEMB      106             0.0000000000
     13128       106  DOPE      O32            -7.1848465433       -6.1864226652      -13.9470827860  MEMB      106             0.0000000000
     13129       106  DOPE      C32            -9.4831838190       -5.3754138958      -14.1244782231  MEMB      106             0.0000000000
     13130       106  DOPE      H2X           -10.0315744262       -5.0271458444      -15.0223114982  MEMB      106             0.0000000000
     13131       106  DOPE      H2Y           -10.1501961403       -6.0447567095      -13.5397097879  MEMB      106             0.0000000000
     13132       106  DOPE      C23           -11.1363732066      -10.6845187863      -13.5580112747  MEMB      106             0.0000000000
     13133       106  DOPE      H3R           -10.2246303979      -11.2845827563      -13.3738247830  MEMB      106             0.0000000000
     13134       106  DOPE      H3S           -11.9558199100      -11.1906518363      -13.0071010694  MEMB      106             0.0000000000
     13135       106  DOPE      C24           -10.9719860752       -9.3034175106      -12.8849225605  MEMB      106             0.0000000000
     13136       106  DOPE      H4R           -11.5250627246       -8.5141494295      -13.4379574615  MEMB      106             0.0000000000
     13137       106  DOPE      H4S            -9.8942774008       -9.0308287657      -12.8649011420  MEMB      106             0.0000000000
     13138       106  DOPE      C25           -11.5265677823       -9.4139138780      -11.4572664128  MEMB      106             0.0000000000
     13139       106  DOPE      H5R           -11.1339800474      -10.3337079189      -10.9941351244  MEMB      106             0.0000000000
     13140       106  DOPE      H5S           -12.6261980757       -9.5473234129      -11.5380288036  MEMB      106             0.0000000000
     13141       106  DOPE      C26           -11.1689877550       -8.3630243073      -10.4072228215  MEMB      106             0.0000000000
     13142       106  DOPE      H6R           -11.4713992462       -7.3508073891      -10.7391015768  MEMB      106             0.0000000000
     13143       106  DOPE      H6S           -10.0682839887       -8.3364958666      -10.2555294453  MEMB      106             0.0000000000
     13144       106  DOPE      C27           -11.8310762036       -8.7657647637       -9.0671304029  MEMB      106             0.0000000000
     13145       106  DOPE      H7R           -11.5350173328       -8.0223342332       -8.2921870384  MEMB      106             0.0000000000
     13146       106  DOPE      H7S           -11.4231344873       -9.7556724171       -8.7703755981  MEMB      106             0.0000000000
     13147       106  DOPE      C28           -13.3650580906       -8.9231348761       -9.0888441733  MEMB      106             0.0000000000
     13148       106  DOPE      H8R           -13.7637302062       -9.0640668046       -8.0582418020  MEMB      106             0.0000000000
     13149       106  DOPE      H8S           -13.6794424810       -9.8064688765       -9.6860896079  MEMB      106             0.0000000000
     13150       106  DOPE      C29           -13.8053253860       -7.6401847220       -9.7099426057  MEMB      106             0.0000000000
     13151       106  DOPE      H9R           -13.9343371310       -7.6364820824      -10.8063703982  MEMB      106             0.0000000000
     13152       106  DOPE      C210          -13.9739058921       -6.5145501813       -9.0247974338  MEMB      106             0.0000000000
     13153       106  DOPE      H10R          -14.1501801670       -5.6047993448       -9.6135544463  MEMB      106             0.0000000000
     13154       106  DOPE      C211          -13.7899336113       -6.2851110666       -7.5440031974  MEMB      106             0.0000000000
     13155       106  DOPE      H11R          -13.2934532447       -7.1319636771       -7.0172177716  MEMB      106             0.0000000000
     13156       106  DOPE      H11S          -14.7987299901       -6.1817851565       -7.0855826579  MEMB      106             0.0000000000
     13157       106  DOPE      C212          -13.0053955195       -4.9889328780       -7.2723618166  MEMB      106             0.0000000000
     13158       106  DOPE      H12R          -13.0194777700       -4.3073037236       -8.1537881618  MEMB      106             0.0000000000
     13159       106  DOPE      H12S          -11.9619046330       -5.2811265125       -7.0689003720  MEMB      106             0.0000000000
     13160       106  DOPE      C213          -13.4755276390       -4.1610324674       -6.0793701574  MEMB      106             0.0000000000
     13161       106  DOPE      H13R          -14.4754164020       -3.7344174328       -6.3091786800  MEMB      106             0.0000000000
     13162       106  DOPE      H13S          -12.7708669036       -3.3132098189       -5.9201431181  MEMB      106             0.0000000000
     13163       106  DOPE      C214          -13.5864327254       -4.9790445712       -4.8056793213  MEMB      106             0.0000000000
     13164       106  DOPE      H14R          -14.3937832802       -5.7342628640       -4.9449594819  MEMB      106             0.0000000000
     13165       106  DOPE      H14S          -13.8945538752       -4.3117007588       -3.9685215979  MEMB      106             0.0000000000
     13166       106  DOPE      C215          -12.3249118856       -5.7380381099       -4.3853772160  MEMB      106             0.0000000000
     13167       106  DOPE      H15R          -11.4182805629       -5.0988840308       -4.3679821164  MEMB      106             0.0000000000
     13168       106  DOPE      H15S          -12.1419534128       -6.5879783076       -5.0815485206  MEMB      106             0.0000000000
     13169       106  DOPE      C216          -12.6264961522       -6.2653046673       -2.9935059582  MEMB      106             0.0000000000
     13170       106  DOPE      H16R          -13.6548418209       -6.6746427110       -3.0742193240  MEMB      106             0.0000000000
     13171       106  DOPE      H16S          -12.6307491715       -5.4413142584       -2.2577219551  MEMB      106             0.0000000000
     13172       106  DOPE      C217          -11.7818625938       -7.4178547612       -2.5126985550  MEMB      106             0.0000000000
     13173       106  DOPE      H17R          -10.6982522919       -7.2183382416       -2.6570427283  MEMB      106             0.0000000000
     13174       106  DOPE      H17S          -12.1179090110       -8.2596784785       -3.1518185429  MEMB      106             0.0000000000
     13175       106  DOPE      C218          -12.0734592215       -7.8606984896       -1.0961042577  MEMB      106             0.0000000000
     13176       106  DOPE      H18R          -13.1145553517       -8.2546161864       -1.0468756391  MEMB      106             0.0000000000
     13177       106  DOPE      H18S          -11.9796949673       -7.0278072204       -0.3706830873  MEMB      106             0.0000000000
     13178       106  DOPE      H18T          -11.3852443546       -8.6868507183       -0.8057855568  MEMB      106             0.0000000000
     13179       106  DOPE      C33            -9.0021414354       -4.2122278994      -13.2578592814  MEMB      106             0.0000000000
     13180       106  DOPE      H3X            -8.4218350644       -3.5264791215      -13.9186187482  MEMB      106             0.0000000000
     13181       106  DOPE      H3Y            -8.3214702869       -4.5757674817      -12.4583016168  MEMB      106             0.0000000000
     13182       106  DOPE      C34           -10.1295102385       -3.4180676244      -12.6250732101  MEMB      106             0.0000000000
     13183       106  DOPE      H4X            -9.7636106340       -2.3885474703      -12.3977659580  MEMB      106             0.0000000000
     13184       106  DOPE      H4Y           -10.9112988696       -3.3476382455      -13.4130635923  MEMB      106             0.0000000000
     13185       106  DOPE      C35           -10.7194141588       -3.9918938900      -11.3260240288  MEMB      106             0.0000000000
     13186       106  DOPE      H5X           -11.1542447841       -4.9955644582      -11.5269942354  MEMB      106             0.0000000000
     13187       106  DOPE      H5Y           -11.5501911180       -3.3401456738      -10.9777129737  MEMB      106             0.0000000000
     13188       106  DOPE      C36            -9.7110867397       -4.0802324753      -10.1710796705  MEMB      106             0.0000000000
     13189       106  DOPE      H6X            -9.2826113313       -3.0787874265       -9.9464798134  MEMB      106             0.0000000000
     13190       106  DOPE      H6Y            -8.8813498095       -4.7332232904      -10.5037810514  MEMB      106             0.0000000000
     13191       106  DOPE      C37           -10.3753253346       -4.6452750838       -8.9071206568  MEMB      106             0.0000000000
     13192       106  DOPE      H7X           -10.9870179377       -3.8246889160       -8.4699386470  MEMB      106             0.0000000000
     13193       106  DOPE      H7Y           -11.0694738808       -5.4591638217       -9.2270972100  MEMB      106             0.0000000000
     13194       106  DOPE      C38            -9.4553714687       -5.2306700930       -7.8137906580  MEMB      106             0.0000000000
     13195       106  DOPE      H8X           -10.0474558455       -5.8282429560       -7.0890262607  MEMB      106             0.0000000000
     13196       106  DOPE      H8Y            -8.9946779808       -4.4049700015       -7.2302054197  MEMB      106             0.0000000000
     13197       106  DOPE      C39            -8.4486925216       -6.1380304271       -8.4514023990  MEMB      106             0.0000000000
     13198       106  DOPE      H9X            -8.7786597707       -6.5887955912       -9.3979862170  MEMB      106             0.0000000000
     13199       106  DOPE      C310           -7.2318659087       -6.4266192894       -7.9881528269  MEMB      106             0.0000000000
     13200       106  DOPE      H10X           -6.5568567196       -7.0221891886       -8.6209944024  MEMB      106             0.0000000000
     13201       106  DOPE      C311           -6.6288080653       -5.8998570711       -6.7211636257  MEMB      106             0.0000000000
     13202       106  DOPE      H11X           -5.9052115578       -5.0963364174       -6.9697057542  MEMB      106             0.0000000000
     13203       106  DOPE      H11Y           -7.3744894480       -5.4483640165       -6.0268395956  MEMB      106             0.0000000000
     13204       106  DOPE      C312           -5.8614267839       -7.0099708186       -5.9904713146  MEMB      106             0.0000000000
     13205       106  DOPE      H12X           -5.0229313613       -6.4894550632       -5.4934713715  MEMB      106             0.0000000000
     13206       106  DOPE      H12Y           -5.3997962402       -7.7510649715       -6.6778969160  MEMB      106             0.0000000000
     13207       106  DOPE      C313           -6.6645104855       -7.6962932318       -4.8828793354  MEMB      106             0.0000000000
     13208       106  DOPE      H13X           -7.2628267413       -6.9187670931       -4.3555298054  MEMB      106             0.0000000000
     13209       106  DOPE      H13Y           -7.3695714688       -8.4470667483       -5.3008151537  MEMB      106             0.0000000000
     13210       106  DOPE      C314           -5.7529194768       -8.3509437114       -3.8403402536  MEMB      106             0.0000000000
     13211       106  DOPE      H14X           -4.8361254559       -7.7374293547       -3.6884559142  MEMB      106             0.0000000000
     13212       106  DOPE      H14Y           -5.4314742802       -9.3365412982       -4.2231132900  MEMB      106             0.0000000000
     13213       106  DOPE      C315           -6.4572159387       -8.5286482934       -2.4932162161  MEMB      106             0.0000000000
     13214       106  DOPE      H15X           -7.2822082886       -9.2547347496       -2.6574166140  MEMB      106             0.0000000000
     13215       106  DOPE      H15Y           -6.9270333482       -7.5736148440       -2.1723082231  MEMB      106             0.0000000000
     13216       106  DOPE      C316           -5.5212106385       -9.0327094185       -1.3875906699  MEMB      106             0.0000000000
     13217       106  DOPE      H16X           -5.3459286866       -8.2346645908       -0.6336392009  MEMB      106             0.0000000000
     13218       106  DOPE      H16Y           -4.5241255859       -9.2441920882       -1.8375675584  MEMB      106             0.0000000000
     13219       106  DOPE      C317           -6.0364408964      -10.3331462483       -0.7499013427  MEMB      106             0.0000000000
     13220       106  DOPE      H17X           -6.0811907048      -11.0837516442       -1.5730948069  MEMB      106             0.0000000000
     13221       106  DOPE      H17Y           -5.2832580494      -10.6992373311       -0.0165464221  MEMB      106             0.0000000000
     13222       106  DOPE      C318           -7.4363325348      -10.2901183383       -0.1145141829  MEMB      106             0.0000000000
     13223       106  DOPE      H18X           -8.1428398604       -9.7105801617       -0.7441844295  MEMB      106             0.0000000000
     13224       106  DOPE      H18Y           -7.8437147949      -11.3215986505       -0.0299833197  MEMB      106             0.0000000000
     13225       106  DOPE      H18Z           -7.4300132653       -9.8427134374        0.8993705018  MEMB      106             0.0000000000
     13226       107  DOPE      N               8.2080309693       -9.4836462600      -16.9438678006  MEMB      107             0.0000000000
     13227       107  DOPE      HN1             8.2417702887       -9.7875713764      -15.9500900869  MEMB      107             0.0000000000
     13228       107  DOPE      HN2             8.4296422740      -10.2609761028      -17.5870035016  MEMB      107             0.0000000000
     13229       107  DOPE      HN3             8.9340130845       -8.7608889994      -17.1584802202  MEMB      107             0.0000000000
     13230       107  DOPE      C12             6.8989932383       -8.9131998260      -17.4343054389  MEMB      107             0.0000000000
     13231       107  DOPE      H12A            6.7148481615       -7.9583388334      -16.8985259426  MEMB      107             0.0000000000
     13232       107  DOPE      H12B            6.0853463082       -9.6320476901      -17.2206072661  MEMB      107             0.0000000000
     13233       107  DOPE      C11             7.0514916866       -8.6463074586      -18.9330370134  MEMB      107             0.0000000000
     13234       107  DOPE      H11A            6.1870695009       -8.0458178462      -19.3067760317  MEMB      107             0.0000000000
     13235       107  DOPE      H11B            7.0851267816       -9.5987422352      -19.5108099689  MEMB      107             0.0000000000
     13236       107  DOPE      P               8.6572670281       -7.0642998774      -20.3273286391  MEMB      107             0.0000000000
     13237       107  DOPE      O13             7.8982025189       -7.5120557987      -21.5147445654  MEMB      107             0.0000000000
     13238       107  DOPE      O14            10.1293057483       -7.1111890840      -20.3486273841  MEMB      107             0.0000000000
     13239       107  DOPE      O11             8.1431390499       -5.6479919703      -19.8367587702  MEMB      107             0.0000000000
     13240       107  DOPE      O12             8.2838725172       -7.9773913010      -19.0994863805  MEMB      107             0.0000000000
     13241       107  DOPE      C1              8.7237246972       -4.4517846127      -20.3798631120  MEMB      107             0.0000000000
     13242       107  DOPE      HA              7.9906480493       -3.9428604121      -21.0309629069  MEMB      107             0.0000000000
     13243       107  DOPE      HB              9.5884265567       -4.6683305294      -21.0526618332  MEMB      107             0.0000000000
     13244       107  DOPE      C2              9.2491818422       -3.4389130275      -19.3076968700  MEMB      107             0.0000000000
     13245       107  DOPE      HS              9.6701027305       -2.5851709922      -19.8864619480  MEMB      107             0.0000000000
     13246       107  DOPE      O21            10.2330913444       -4.0492353557      -18.4643418267  MEMB      107             0.0000000000
     13247       107  DOPE      C21            11.3936917471       -4.3318469770      -18.9974242863  MEMB      107             0.0000000000
     13248       107  DOPE      O22            11.7851963679       -3.9797228059      -20.1015773271  MEMB      107             0.0000000000
     13249       107  DOPE      C22            12.1895680539       -5.1819242654      -18.0161786037  MEMB      107             0.0000000000
     13250       107  DOPE      H2R            13.2082672914       -5.3424634693      -18.4284480219  MEMB      107             0.0000000000
     13251       107  DOPE      H2S            11.6747213164       -6.1621751273      -17.9782007507  MEMB      107             0.0000000000
     13252       107  DOPE      C3              8.1919393175       -2.7916998202      -18.3639703395  MEMB      107             0.0000000000
     13253       107  DOPE      HX              7.4129554195       -2.3136744674      -18.9947216967  MEMB      107             0.0000000000
     13254       107  DOPE      HY              8.6939188633       -1.9715157962      -17.7937884023  MEMB      107             0.0000000000
     13255       107  DOPE      O31             7.5510639587       -3.7331912615      -17.4902486222  MEMB      107             0.0000000000
     13256       107  DOPE      C31             8.1325989439       -3.9769297869      -16.3214614633  MEMB      107             0.0000000000
     13257       107  DOPE      O32             9.0611225635       -3.3530306279      -15.8403563921  MEMB      107             0.0000000000
     13258       107  DOPE      C32             7.4267661151       -5.2070099656      -15.7006061970  MEMB      107             0.0000000000
     13259       107  DOPE      H2X             6.3428442417       -5.0823867447      -15.9027418591  MEMB      107             0.0000000000
     13260       107  DOPE      H2Y             7.7806451950       -6.0986523043      -16.2522468140  MEMB      107             0.0000000000
     13261       107  DOPE      C23            12.2511079474       -4.5237856880      -16.6207213035  MEMB      107             0.0000000000
     13262       107  DOPE      H3R            11.2505922765       -4.1753910880      -16.2925236800  MEMB      107             0.0000000000
     13263       107  DOPE      H3S            12.9020858995       -3.6202202161      -16.7001671187  MEMB      107             0.0000000000
     13264       107  DOPE      C24            12.8085424613       -5.4435598554      -15.5292793453  MEMB      107             0.0000000000
     13265       107  DOPE      H4R            12.9851389477       -4.8273780245      -14.6204778864  MEMB      107             0.0000000000
     13266       107  DOPE      H4S            13.7714108320       -5.8487717581      -15.9211100809  MEMB      107             0.0000000000
     13267       107  DOPE      C25            11.9543940853       -6.6367070521      -15.0965467188  MEMB      107             0.0000000000
     13268       107  DOPE      H5R            12.6046030296       -7.3727479494      -14.5745984759  MEMB      107             0.0000000000
     13269       107  DOPE      H5S            11.5680764477       -7.1229960162      -16.0190053684  MEMB      107             0.0000000000
     13270       107  DOPE      C26            10.7813359964       -6.2627561445      -14.1812128307  MEMB      107             0.0000000000
     13271       107  DOPE      H6R             9.8957242222       -6.5730582644      -14.7708485285  MEMB      107             0.0000000000
     13272       107  DOPE      H6S            10.7052474610       -5.1611307508      -14.0397878941  MEMB      107             0.0000000000
     13273       107  DOPE      C27            10.7355244285       -6.9565162318      -12.8001344787  MEMB      107             0.0000000000
     13274       107  DOPE      H7R            11.3606323464       -7.8727842061      -12.8096429881  MEMB      107             0.0000000000
     13275       107  DOPE      H7S             9.6877609177       -7.2853543955      -12.6150991888  MEMB      107             0.0000000000
     13276       107  DOPE      C28            11.1311678471       -6.0242477238      -11.6308797113  MEMB      107             0.0000000000
     13277       107  DOPE      H8R            10.5274100137       -5.0936244685      -11.7222560473  MEMB      107             0.0000000000
     13278       107  DOPE      H8S            12.1873008569       -5.7186709202      -11.7517512387  MEMB      107             0.0000000000
     13279       107  DOPE      C29            10.9211696320       -6.6084360842      -10.2556901140  MEMB      107             0.0000000000
     13280       107  DOPE      H9R            10.4798893489       -7.6169528707      -10.2178012828  MEMB      107             0.0000000000
     13281       107  DOPE      C210           11.2218182865       -5.9821253303       -9.1032102568  MEMB      107             0.0000000000
     13282       107  DOPE      H10R           10.9994241235       -6.4854674634       -8.1478357250  MEMB      107             0.0000000000
     13283       107  DOPE      C211           11.8184067574       -4.6005214563       -8.9724459032  MEMB      107             0.0000000000
     13284       107  DOPE      H11R           12.2572546407       -4.2525110111       -9.9349614679  MEMB      107             0.0000000000
     13285       107  DOPE      H11S           12.6587783328       -4.6222493329       -8.2431138451  MEMB      107             0.0000000000
     13286       107  DOPE      C212           10.7854094718       -3.5470386015       -8.5246309844  MEMB      107             0.0000000000
     13287       107  DOPE      H12R            9.9806044485       -3.4715689144       -9.2909681589  MEMB      107             0.0000000000
     13288       107  DOPE      H12S           11.2853205893       -2.5526719238       -8.4689094173  MEMB      107             0.0000000000
     13289       107  DOPE      C213           10.1376870344       -3.8262850192       -7.1619868004  MEMB      107             0.0000000000
     13290       107  DOPE      H13R            9.5968361960       -4.7984335369       -7.1818371327  MEMB      107             0.0000000000
     13291       107  DOPE      H13S            9.3774795055       -3.0363875854       -6.9612823609  MEMB      107             0.0000000000
     13292       107  DOPE      C214           11.1369294731       -3.8328957094       -6.0019711519  MEMB      107             0.0000000000
     13293       107  DOPE      H14R           11.6867282480       -2.8638847535       -5.9864925869  MEMB      107             0.0000000000
     13294       107  DOPE      H14S           11.8780854844       -4.6522292231       -6.1249669813  MEMB      107             0.0000000000
     13295       107  DOPE      C215           10.4072756003       -4.0106870276       -4.6743278931  MEMB      107             0.0000000000
     13296       107  DOPE      H15R            9.6828523733       -4.8509504829       -4.7413721662  MEMB      107             0.0000000000
     13297       107  DOPE      H15S            9.8179872628       -3.0836897027       -4.5185294838  MEMB      107             0.0000000000
     13298       107  DOPE      C216           11.3289559595       -4.2582130664       -3.4811035833  MEMB      107             0.0000000000
     13299       107  DOPE      H16R           11.9103053636       -5.1960733634       -3.6274538271  MEMB      107             0.0000000000
     13300       107  DOPE      H16S           10.6956642127       -4.3978559109       -2.5730006452  MEMB      107             0.0000000000
     13301       107  DOPE      C217           12.2913302966       -3.1025916478       -3.2209870824  MEMB      107             0.0000000000
     13302       107  DOPE      H17R           11.7348316717       -2.1365117800       -3.2778862053  MEMB      107             0.0000000000
     13303       107  DOPE      H17S           13.0896861483       -3.0776684581       -3.9975115656  MEMB      107             0.0000000000
     13304       107  DOPE      C218           12.9201423619       -3.2530853145       -1.8459524808  MEMB      107             0.0000000000
     13305       107  DOPE      H18R           12.1237703380       -3.3699655268       -1.0801671347  MEMB      107             0.0000000000
     13306       107  DOPE      H18S           13.5216677329       -2.3724960697       -1.5921248888  MEMB      107             0.0000000000
     13307       107  DOPE      H18T           13.6059759267       -4.1234879638       -1.8030567852  MEMB      107             0.0000000000
     13308       107  DOPE      C33             7.6343923991       -5.4153661242      -14.1757181364  MEMB      107             0.0000000000
     13309       107  DOPE      H3X             8.2718288505       -4.5958013609      -13.7669291305  MEMB      107             0.0000000000
     13310       107  DOPE      H3Y             8.1528737934       -6.3712415366      -13.9769753759  MEMB      107             0.0000000000
     13311       107  DOPE      C34             6.3471312025       -5.5286945037      -13.3568490034  MEMB      107             0.0000000000
     13312       107  DOPE      H4X             5.5528595306       -4.9775738383      -13.8946318005  MEMB      107             0.0000000000
     13313       107  DOPE      H4Y             6.0219635269       -6.5849034285      -13.2607872980  MEMB      107             0.0000000000
     13314       107  DOPE      C35             6.5301137754       -4.8957091003      -11.9785185604  MEMB      107             0.0000000000
     13315       107  DOPE      H5X             5.5557835311       -4.6673606593      -11.4945799585  MEMB      107             0.0000000000
     13316       107  DOPE      H5Y             7.0289832768       -3.9366619175      -12.2103510580  MEMB      107             0.0000000000
     13317       107  DOPE      C36             7.3896594448       -5.7084558616      -11.0079390297  MEMB      107             0.0000000000
     13318       107  DOPE      H6X             7.7756463511       -5.0716997633      -10.1817952081  MEMB      107             0.0000000000
     13319       107  DOPE      H6Y             8.2789864576       -6.0911505579      -11.5444015918  MEMB      107             0.0000000000
     13320       107  DOPE      C37             6.5863710605       -6.8582897085      -10.3973911868  MEMB      107             0.0000000000
     13321       107  DOPE      H7X             5.9057047218       -6.4477938008       -9.6179164492  MEMB      107             0.0000000000
     13322       107  DOPE      H7Y             5.9586194602       -7.3074589947      -11.1987694728  MEMB      107             0.0000000000
     13323       107  DOPE      C38             7.4782763740       -7.9496073221       -9.8018282011  MEMB      107             0.0000000000
     13324       107  DOPE      H8X             8.0363352794       -7.5257748907       -8.9371078699  MEMB      107             0.0000000000
     13325       107  DOPE      H8Y             8.2311101402       -8.2441953492      -10.5678739607  MEMB      107             0.0000000000
     13326       107  DOPE      C39             6.6578366933       -9.1420651701       -9.3908986632  MEMB      107             0.0000000000
     13327       107  DOPE      H9X             5.5675555880       -9.0483182276       -9.5169204634  MEMB      107             0.0000000000
     13328       107  DOPE      C310            7.1800134716      -10.2758807844       -8.9061492147  MEMB      107             0.0000000000
     13329       107  DOPE      H10X            6.5172618507      -11.1131906909       -8.6350139076  MEMB      107             0.0000000000
     13330       107  DOPE      C311            8.6510741157      -10.5127642232       -8.7067279010  MEMB      107             0.0000000000
     13331       107  DOPE      H11X            8.8879021692      -11.5362612202       -9.0663143094  MEMB      107             0.0000000000
     13332       107  DOPE      H11Y            9.2859130618       -9.8144562827       -9.2982975068  MEMB      107             0.0000000000
     13333       107  DOPE      C312            9.0689166239      -10.4031965037       -7.2330911526  MEMB      107             0.0000000000
     13334       107  DOPE      H12X           10.1339455929      -10.7062841164       -7.1431753170  MEMB      107             0.0000000000
     13335       107  DOPE      H12Y            8.4808089356      -11.1157349181       -6.6119531050  MEMB      107             0.0000000000
     13336       107  DOPE      C313            8.9967508904       -8.9974544512       -6.6231768768  MEMB      107             0.0000000000
     13337       107  DOPE      H13X            9.4986563671       -8.2580426422       -7.2839468909  MEMB      107             0.0000000000
     13338       107  DOPE      H13Y            7.9328472699       -8.6960619832       -6.5023491117  MEMB      107             0.0000000000
     13339       107  DOPE      C314            9.7000052730       -9.0356251774       -5.2654663343  MEMB      107             0.0000000000
     13340       107  DOPE      H14X           10.7777446622       -9.2761494886       -5.4035265166  MEMB      107             0.0000000000
     13341       107  DOPE      H14Y            9.2370511215       -9.8916642128       -4.7280341938  MEMB      107             0.0000000000
     13342       107  DOPE      C315            9.5846448067       -7.7610939295       -4.4237177544  MEMB      107             0.0000000000
     13343       107  DOPE      H15X            8.5169336655       -7.4529290746       -4.3610748531  MEMB      107             0.0000000000
     13344       107  DOPE      H15Y           10.1421583425       -6.9421490337       -4.9290328539  MEMB      107             0.0000000000
     13345       107  DOPE      C316           10.1335037434       -7.9575003875       -2.9989496456  MEMB      107             0.0000000000
     13346       107  DOPE      H16X            9.8889374669       -7.0563929496       -2.3911352249  MEMB      107             0.0000000000
     13347       107  DOPE      H16Y           11.2429224551       -8.0364582974       -3.0476486118  MEMB      107             0.0000000000
     13348       107  DOPE      C317            9.5819259754       -9.2079525227       -2.2900040037  MEMB      107             0.0000000000
     13349       107  DOPE      H17X            9.9934529933      -10.1211697583       -2.7767668659  MEMB      107             0.0000000000
     13350       107  DOPE      H17Y            9.9728628272       -9.2204132304       -1.2497867885  MEMB      107             0.0000000000
     13351       107  DOPE      C318            8.0483784203       -9.2927993462       -2.2816771493  MEMB      107             0.0000000000
     13352       107  DOPE      H18X            7.6500678933       -9.4455626487       -3.3075812071  MEMB      107             0.0000000000
     13353       107  DOPE      H18Y            7.7031994822      -10.1413889080       -1.6549122420  MEMB      107             0.0000000000
     13354       107  DOPE      H18Z            7.6124788318       -8.3497524145       -1.8868488462  MEMB      107             0.0000000000
     13355       108  23SM      N               9.8195863947        7.3661723896      -27.9953798705  MEMB      108             0.0000000000
     13356       108  23SM      C15            10.8195607862        8.4670172284      -28.2020702484  MEMB      108             0.0000000000
     13357       108  23SM      H15A           10.3686604511        9.3563319064      -28.6411574391  MEMB      108             0.0000000000
     13358       108  23SM      H15B           11.6039839885        8.1559038149      -28.8819386844  MEMB      108             0.0000000000
     13359       108  23SM      H15C           11.3105038450        8.7293648769      -27.2645909339  MEMB      108             0.0000000000
     13360       108  23SM      C14             9.2546518804        6.9448136991      -29.3091924227  MEMB      108             0.0000000000
     13361       108  23SM      H14A            8.7763716140        7.7613120749      -29.8424441163  MEMB      108             0.0000000000
     13362       108  23SM      H14B            8.5231678135        6.1367729484      -29.2360274815  MEMB      108             0.0000000000
     13363       108  23SM      H14C           10.0571696533        6.5884887235      -29.9397210619  MEMB      108             0.0000000000
     13364       108  23SM      C13            10.5017449073        6.1727351126      -27.4090897364  MEMB      108             0.0000000000
     13365       108  23SM      H13A           11.2623904799        5.7549330339      -28.0547520695  MEMB      108             0.0000000000
     13366       108  23SM      H13B            9.7608376447        5.4030239766      -27.2159422333  MEMB      108             0.0000000000
     13367       108  23SM      H13C           10.9311900082        6.4422716650      -26.4443946359  MEMB      108             0.0000000000
     13368       108  23SM      C12             8.7311598103        7.7842541617      -27.0210045649  MEMB      108             0.0000000000
     13369       108  23SM      H12A            8.0368129673        6.9543273464      -26.8869883868  MEMB      108             0.0000000000
     13370       108  23SM      H12B            8.1436179921        8.5997774446      -27.4273540936  MEMB      108             0.0000000000
     13371       108  23SM      C11             9.1988246952        8.1791973548      -25.6045681581  MEMB      108             0.0000000000
     13372       108  23SM      H11A            8.3728829137        8.7268955203      -25.0829962036  MEMB      108             0.0000000000
     13373       108  23SM      H11B           10.0492138150        8.8917538198      -25.6618282286  MEMB      108             0.0000000000
     13374       108  23SM      P               8.5506698370        6.1623753455      -24.1201181193  MEMB      108             0.0000000000
     13375       108  23SM      O13             7.3178352061        6.0501284964      -24.9223562177  MEMB      108             0.0000000000
     13376       108  23SM      O14             9.0825339220        4.8365526831      -23.7211296467  MEMB      108             0.0000000000
     13377       108  23SM      O11             8.2191158712        6.9931541862      -22.8263821111  MEMB      108             0.0000000000
     13378       108  23SM      O12             9.6231624929        7.0133129982      -24.8981703364  MEMB      108             0.0000000000
     13379       108  23SM      C1S             9.2587364098        7.6415394960      -22.0927773250  MEMB      108             0.0000000000
     13380       108  23SM      H1S             8.8434760917        8.5777639149      -21.6597064213  MEMB      108             0.0000000000
     13381       108  23SM      H1T            10.0808699093        7.9836889994      -22.7566577114  MEMB      108             0.0000000000
     13382       108  23SM      NF             10.6468113899        5.6977851852      -21.3656170695  MEMB      108             0.0000000000
     13383       108  23SM      HNF            10.2142225965        4.8262296722      -21.5976709069  MEMB      108             0.0000000000
     13384       108  23SM      C2S             9.8082348341        6.7844160658      -20.8917181715  MEMB      108             0.0000000000
     13385       108  23SM      H2S            10.4239352325        7.4504560571      -20.2422657336  MEMB      108             0.0000000000
     13386       108  23SM      C3S             8.6066753801        6.2992655223      -20.0446756039  MEMB      108             0.0000000000
     13387       108  23SM      H3S             7.9475736994        5.6346289466      -20.6450689087  MEMB      108             0.0000000000
     13388       108  23SM      O3              7.8365565926        7.4199235799      -19.6051657746  MEMB      108             0.0000000000
     13389       108  23SM      HO3             8.0240919517        8.1379209261      -20.2187193638  MEMB      108             0.0000000000
     13390       108  23SM      C4S             8.9813317947        5.6007464643      -18.7588825181  MEMB      108             0.0000000000
     13391       108  23SM      H4S             9.7324995948        6.1350012661      -18.1596684865  MEMB      108             0.0000000000
     13392       108  23SM      C5S             8.4352319694        4.4522178649      -18.3003774658  MEMB      108             0.0000000000
     13393       108  23SM      H5S             7.6504770072        3.9571398041      -18.8995346330  MEMB      108             0.0000000000
     13394       108  23SM      C6S             8.7657397608        3.7431870365      -17.0128687830  MEMB      108             0.0000000000
     13395       108  23SM      H6S             9.6973308253        3.1406026729      -17.0979725869  MEMB      108             0.0000000000
     13396       108  23SM      H6T             7.9482904504        3.0148375505      -16.8080160011  MEMB      108             0.0000000000
     13397       108  23SM      C7S             8.8230593558        4.6634204127      -15.7625903497  MEMB      108             0.0000000000
     13398       108  23SM      H7S             7.9110639453        5.2991375376      -15.7217136594  MEMB      108             0.0000000000
     13399       108  23SM      H7T             9.6969724681        5.3458055586      -15.8126119052  MEMB      108             0.0000000000
     13400       108  23SM      C8S             8.8832920573        3.8172921121      -14.4823370249  MEMB      108             0.0000000000
     13401       108  23SM      H8S             9.7376576075        3.1082284380      -14.5780109515  MEMB      108             0.0000000000
     13402       108  23SM      H8T             7.9494642854        3.2207902637      -14.4446993849  MEMB      108             0.0000000000
     13403       108  23SM      C9S             9.0003665423        4.5310106549      -13.1216799187  MEMB      108             0.0000000000
     13404       108  23SM      H9S             8.1311310586        5.2007909441      -12.9471395660  MEMB      108             0.0000000000
     13405       108  23SM      H9T             9.9058874365        5.1647790341      -13.1071275560  MEMB      108             0.0000000000
     13406       108  23SM      C10S            9.0413897626        3.4467361674      -12.0198308710  MEMB      108             0.0000000000
     13407       108  23SM      H10S            9.5295286431        2.5350915724      -12.4355398253  MEMB      108             0.0000000000
     13408       108  23SM      H10T            7.9745582339        3.2384595234      -11.8116323183  MEMB      108             0.0000000000
     13409       108  23SM      C11S            9.7520450838        3.7403480417      -10.6892553525  MEMB      108             0.0000000000
     13410       108  23SM      H11S            9.2990507064        4.6465650533      -10.2434953099  MEMB      108             0.0000000000
     13411       108  23SM      H11T           10.8140466483        3.9004380004      -10.8941595216  MEMB      108             0.0000000000
     13412       108  23SM      C12S            9.6713964524        2.6368239147       -9.6227218852  MEMB      108             0.0000000000
     13413       108  23SM      H12S           10.0984121303        1.6768844337       -9.9802106347  MEMB      108             0.0000000000
     13414       108  23SM      H12T            8.5813917465        2.5737686909       -9.4524497798  MEMB      108             0.0000000000
     13415       108  23SM      C13S           10.1591242723        2.9870170331       -8.2173002469  MEMB      108             0.0000000000
     13416       108  23SM      H13S            9.5707271399        3.9080478715       -8.0124027093  MEMB      108             0.0000000000
     13417       108  23SM      H13T           11.2477379102        3.1997747221       -8.2002978610  MEMB      108             0.0000000000
     13418       108  23SM      C14S            9.7618895203        1.9976358168       -7.1052824852  MEMB      108             0.0000000000
     13419       108  23SM      H14S           10.2222654112        1.0040161479       -7.2863300217  MEMB      108             0.0000000000
     13420       108  23SM      H14T            8.6557508136        1.8815203253       -7.1617383499  MEMB      108             0.0000000000
     13421       108  23SM      C15S           10.0473145176        2.4545485501       -5.6584844210  MEMB      108             0.0000000000
     13422       108  23SM      H15S            9.5338333408        1.7394126057       -4.9756348030  MEMB      108             0.0000000000
     13423       108  23SM      H15T            9.5858899918        3.4526673486       -5.4845526078  MEMB      108             0.0000000000
     13424       108  23SM      C16S           11.5314961662        2.5070872993       -5.2582782065  MEMB      108             0.0000000000
     13425       108  23SM      H16S           12.0095958348        3.3732136806       -5.7667181338  MEMB      108             0.0000000000
     13426       108  23SM      H16T           12.0449511251        1.5811744556       -5.5981632581  MEMB      108             0.0000000000
     13427       108  23SM      C17S           11.7143399568        2.6523660327       -3.7381188213  MEMB      108             0.0000000000
     13428       108  23SM      H17S           11.4056146177        1.7010277150       -3.2498696576  MEMB      108             0.0000000000
     13429       108  23SM      H17T           11.0249841700        3.4510909442       -3.3787028408  MEMB      108             0.0000000000
     13430       108  23SM      C18S           13.1358713379        2.9946232871       -3.2863020445  MEMB      108             0.0000000000
     13431       108  23SM      H18S           13.5497012356        3.8393679695       -3.8745446944  MEMB      108             0.0000000000
     13432       108  23SM      H18T           13.8109458173        2.1259389202       -3.4148886474  MEMB      108             0.0000000000
     13433       108  23SM      H18U           13.1412468766        3.2895380057       -2.2155643483  MEMB      108             0.0000000000
     13434       108  23SM      C1F            11.8748224334        6.0852525126      -21.7575304103  MEMB      108             0.0000000000
     13435       108  23SM      OF             12.1482466139        7.2685835032      -21.9177575869  MEMB      108             0.0000000000
     13436       108  23SM      C2F            12.9749978100        5.0925800818      -21.8933128100  MEMB      108             0.0000000000
     13437       108  23SM      H2F            13.7505820462        5.5496330878      -22.5545600031  MEMB      108             0.0000000000
     13438       108  23SM      H2G            12.6450116553        4.1366452048      -22.3340724835  MEMB      108             0.0000000000
     13439       108  23SM      C3F            13.6175194484        4.9122157564      -20.5051938504  MEMB      108             0.0000000000
     13440       108  23SM      H3F            13.8046679261        5.9122015856      -20.0436284459  MEMB      108             0.0000000000
     13441       108  23SM      H3G            14.6188308467        4.4451471683      -20.6331975312  MEMB      108             0.0000000000
     13442       108  23SM      C4F            12.7933765972        4.0498239159      -19.5474267925  MEMB      108             0.0000000000
     13443       108  23SM      H4F            12.7357930914        3.0280264903      -19.9868457125  MEMB      108             0.0000000000
     13444       108  23SM      H4G            11.7561101729        4.4241354597      -19.4206202300  MEMB      108             0.0000000000
     13445       108  23SM      C5F            13.4599477392        3.9812420695      -18.1807006601  MEMB      108             0.0000000000
     13446       108  23SM      H5F            14.5664643752        4.0377493226      -18.2927405822  MEMB      108             0.0000000000
     13447       108  23SM      H5G            13.2443005988        2.9918687916      -17.7383376945  MEMB      108             0.0000000000
     13448       108  23SM      C6F            12.9895296001        5.0360788090      -17.1671344520  MEMB      108             0.0000000000
     13449       108  23SM      H6F            12.2791353630        5.7568624184      -17.6244325580  MEMB      108             0.0000000000
     13450       108  23SM      H6G            13.8889360102        5.6105036381      -16.8644828953  MEMB      108             0.0000000000
     13451       108  23SM      C7F            12.3655519386        4.3774588769      -15.9245262392  MEMB      108             0.0000000000
     13452       108  23SM      H7F            12.8982269887        3.4407793632      -15.7017688247  MEMB      108             0.0000000000
     13453       108  23SM      H7G            11.3294505911        4.0743724942      -16.1358899584  MEMB      108             0.0000000000
     13454       108  23SM      C8F            12.4794628344        5.1804505332      -14.6317817755  MEMB      108             0.0000000000
     13455       108  23SM      H8F            11.7468477666        6.0114917964      -14.6547666843  MEMB      108             0.0000000000
     13456       108  23SM      H8G            13.5138754543        5.5718504064      -14.5747701067  MEMB      108             0.0000000000
     13457       108  23SM      C9F            12.3747153884        4.3368074043      -13.3576846913  MEMB      108             0.0000000000
     13458       108  23SM      H9F            13.1673896483        3.5585911915      -13.4225815809  MEMB      108             0.0000000000
     13459       108  23SM      H9G            11.4275221621        3.7804701967      -13.3147748164  MEMB      108             0.0000000000
     13460       108  23SM      C10F           12.6486610558        5.1416313586      -12.0706581460  MEMB      108             0.0000000000
     13461       108  23SM      H10F           13.7366424537        5.3411792886      -12.1490303878  MEMB      108             0.0000000000
     13462       108  23SM      H10G           12.5868648264        4.5141004515      -11.1667407644  MEMB      108             0.0000000000
     13463       108  23SM      C11F           11.9448139669        6.5152047678      -11.8888065246  MEMB      108             0.0000000000
     13464       108  23SM      H11F           11.6207070240        6.9530252696      -12.8509649409  MEMB      108             0.0000000000
     13465       108  23SM      H11G           12.7355638057        7.1837494134      -11.5187678921  MEMB      108             0.0000000000
     13466       108  23SM      C12F           10.8643682703        6.7468105203      -10.8095372273  MEMB      108             0.0000000000
     13467       108  23SM      H12F            9.8923755556        6.3368461078      -11.1316353432  MEMB      108             0.0000000000
     13468       108  23SM      H12G           10.6979526024        7.8452453426      -10.7719278680  MEMB      108             0.0000000000
     13469       108  23SM      C13F           11.2470590709        6.2917035569       -9.3865505010  MEMB      108             0.0000000000
     13470       108  23SM      H13F           12.1963761128        6.7786203737       -9.0900542752  MEMB      108             0.0000000000
     13471       108  23SM      H13G           11.4517047935        5.2046263155       -9.3805410774  MEMB      108             0.0000000000
     13472       108  23SM      C14F           10.1595085307        6.5911379444       -8.3352049123  MEMB      108             0.0000000000
     13473       108  23SM      H14F            9.1974156059        6.1468685004       -8.6756162650  MEMB      108             0.0000000000
     13474       108  23SM      H14G           10.0079949463        7.6890026520       -8.2653993084  MEMB      108             0.0000000000
     13475       108  23SM      C15F           10.4707037309        6.0479750001       -6.9308035119  MEMB      108             0.0000000000
     13476       108  23SM      H15F           10.6957722053        4.9707110082       -6.9399201874  MEMB      108             0.0000000000
     13477       108  23SM      H15G            9.5972345565        6.1882287150       -6.2581357490  MEMB      108             0.0000000000
     13478       108  23SM      C16F           11.7296255071        6.6133870801       -6.3105828309  MEMB      108             0.0000000000
     13479       108  23SM      H16F           12.1819725006        7.3540253745       -7.0011632282  MEMB      108             0.0000000000
     13480       108  23SM      H16G           12.4666227818        5.7842709852       -6.2000188809  MEMB      108             0.0000000000
     13481       108  23SM      C17F           11.4717408538        7.2411415340       -4.9477507218  MEMB      108             0.0000000000
     13482       108  23SM      H17F           10.6168969162        7.9463913715       -5.0045351096  MEMB      108             0.0000000000
     13483       108  23SM      H17G           12.3884100371        7.8130225914       -4.6998155851  MEMB      108             0.0000000000
     13484       108  23SM      C18F           11.2677008669        6.2102059407       -3.8363248659  MEMB      108             0.0000000000
     13485       108  23SM      H18F           12.1159901117        5.4933367895       -3.9319466220  MEMB      108             0.0000000000
     13486       108  23SM      H18G           10.3257394861        5.6414595141       -3.9746127707  MEMB      108             0.0000000000
     13487       108  23SM      C19F           11.3646941456        6.8128841541       -2.4297085721  MEMB      108             0.0000000000
     13488       108  23SM      H19F           12.2937625401        7.3943209536       -2.4076045333  MEMB      108             0.0000000000
     13489       108  23SM      H19G           11.4849010890        6.0024128563       -1.6810260565  MEMB      108             0.0000000000
     13490       108  23SM      C20F           10.2621007645        7.7861981702       -2.0026743923  MEMB      108             0.0000000000
     13491       108  23SM      H20F            9.2603851008        7.3206910033       -2.0572159023  MEMB      108             0.0000000000
     13492       108  23SM      H20G           10.1928075989        8.6162836843       -2.7347925261  MEMB      108             0.0000000000
     13493       108  23SM      C21F           10.5291487180        8.3800552380       -0.5962147332  MEMB      108             0.0000000000
     13494       108  23SM      H21F            9.6428892527        9.0005169002       -0.3415291176  MEMB      108             0.0000000000
     13495       108  23SM      H21G           11.4082792833        9.0548435410       -0.7094715014  MEMB      108             0.0000000000
     13496       108  23SM      C22F           10.9048676882        7.4815979716        0.6163468311  MEMB      108             0.0000000000
     13497       108  23SM      H22F           11.9789232603        7.2094852993        0.5148989656  MEMB      108             0.0000000000
     13498       108  23SM      H22G           10.3683869224        6.5257869793        0.7011941888  MEMB      108             0.0000000000
     13499       108  23SM      C23F           10.6662104975        8.1419725542        1.9799455008  MEMB      108             0.0000000000
     13500       108  23SM      H23F           11.5797132645        8.6876396264        2.2893766224  MEMB      108             0.0000000000
     13501       108  23SM      H23G           10.4548581032        7.4015340250        2.7731977010  MEMB      108             0.0000000000
     13502       108  23SM      H23H            9.8078720065        8.8463359945        1.9473892483  MEMB      108             0.0000000000
     13503       109  CHL1      C3            -11.8080203619       -0.3899735262      -17.2739517638  MEMB      109             0.0000000000
     13504       109  CHL1      H3            -10.9541857885       -1.0078438576      -16.9045796419  MEMB      109             0.0000000000
     13505       109  CHL1      O3            -11.9081255279       -0.5955630660      -18.6644929594  MEMB      109             0.0000000000
     13506       109  CHL1      H3'           -12.6927687305       -0.1090027741      -18.9619427917  MEMB      109             0.0000000000
     13507       109  CHL1      C4            -13.1107997265       -0.8408544017      -16.6198935582  MEMB      109             0.0000000000
     13508       109  CHL1      H4A           -13.9523317215       -0.2213988991      -16.9924517948  MEMB      109             0.0000000000
     13509       109  CHL1      H4B           -13.3171974218       -1.8914613943      -16.9403348529  MEMB      109             0.0000000000
     13510       109  CHL1      C5            -12.9900706211       -0.7024345824      -15.1224553874  MEMB      109             0.0000000000
     13511       109  CHL1      C6            -13.1451726868       -1.7749521833      -14.3422284762  MEMB      109             0.0000000000
     13512       109  CHL1      H6            -13.3836684070       -2.7588445056      -14.7765097708  MEMB      109             0.0000000000
     13513       109  CHL1      C7            -13.0573948750       -1.6870467650      -12.8588002757  MEMB      109             0.0000000000
     13514       109  CHL1      H7A           -13.7917308297       -2.3393812508      -12.3648125500  MEMB      109             0.0000000000
     13515       109  CHL1      H7B           -12.0745229610       -2.0391473884      -12.5486006030  MEMB      109             0.0000000000
     13516       109  CHL1      C8            -13.0654961423       -0.2632129706      -12.2839581320  MEMB      109             0.0000000000
     13517       109  CHL1      H8            -14.0998374471        0.1297227398      -12.3175543950  MEMB      109             0.0000000000
     13518       109  CHL1      C14           -12.5960906059       -0.3576639304      -10.8516714824  MEMB      109             0.0000000000
     13519       109  CHL1      H14           -11.5672035341       -0.8033498270      -10.8731182033  MEMB      109             0.0000000000
     13520       109  CHL1      C15           -13.4311094690       -1.2680221125       -9.9475418492  MEMB      109             0.0000000000
     13521       109  CHL1      H15A          -14.4940309281       -0.9973160819      -10.1152453065  MEMB      109             0.0000000000
     13522       109  CHL1      H15B          -13.2927875170       -2.3483483875      -10.1382992098  MEMB      109             0.0000000000
     13523       109  CHL1      C16           -13.0002818221       -0.8685405163       -8.5446836938  MEMB      109             0.0000000000
     13524       109  CHL1      H16A          -13.9132119733       -0.6525354357       -7.9508558280  MEMB      109             0.0000000000
     13525       109  CHL1      H16B          -12.4238792334       -1.6733876437       -8.0436765778  MEMB      109             0.0000000000
     13526       109  CHL1      C17           -12.1301872331        0.4192385074       -8.7093102891  MEMB      109             0.0000000000
     13527       109  CHL1      H17           -11.0686249568        0.0752203426       -8.7519763023  MEMB      109             0.0000000000
     13528       109  CHL1      C13           -12.4523288391        0.9649566765      -10.1220131928  MEMB      109             0.0000000000
     13529       109  CHL1      C18           -13.8024435565        1.7093533514      -10.0663132475  MEMB      109             0.0000000000
     13530       109  CHL1      H18A          -14.5278301658        1.1669260631       -9.4330059571  MEMB      109             0.0000000000
     13531       109  CHL1      H18B          -13.6605467650        2.7240314289       -9.6436154762  MEMB      109             0.0000000000
     13532       109  CHL1      H18C          -14.2504825536        1.8220647487      -11.0726322509  MEMB      109             0.0000000000
     13533       109  CHL1      C12           -11.3911148897        1.7773686966      -10.8970440251  MEMB      109             0.0000000000
     13534       109  CHL1      H12A          -11.2280293797        2.7699939756      -10.4375212064  MEMB      109             0.0000000000
     13535       109  CHL1      H12B          -10.4282349387        1.2222115106      -10.8694539051  MEMB      109             0.0000000000
     13536       109  CHL1      C11           -11.8064653688        1.9665124866      -12.3806800831  MEMB      109             0.0000000000
     13537       109  CHL1      H11A          -12.6939220559        2.6307043089      -12.4128568292  MEMB      109             0.0000000000
     13538       109  CHL1      H11B          -10.9827213122        2.4842246716      -12.9159315415  MEMB      109             0.0000000000
     13539       109  CHL1      C9            -12.1180623441        0.6155637194      -13.0945202049  MEMB      109             0.0000000000
     13540       109  CHL1      H9            -11.1381301543        0.0724892921      -13.0943113574  MEMB      109             0.0000000000
     13541       109  CHL1      C10           -12.5548946354        0.6898781298      -14.5855346061  MEMB      109             0.0000000000
     13542       109  CHL1      C19           -13.7883109987        1.6163717484      -14.6893768929  MEMB      109             0.0000000000
     13543       109  CHL1      H19A          -14.6007535121        1.2492260108      -14.0323837724  MEMB      109             0.0000000000
     13544       109  CHL1      H19B          -13.5378200431        2.6516306183      -14.3878714548  MEMB      109             0.0000000000
     13545       109  CHL1      H19C          -14.1808363582        1.6481034261      -15.7240073898  MEMB      109             0.0000000000
     13546       109  CHL1      C1            -11.3746680090        1.2478104542      -15.4385726303  MEMB      109             0.0000000000
     13547       109  CHL1      H1A           -11.1973889806        2.3158243553      -15.1908963861  MEMB      109             0.0000000000
     13548       109  CHL1      H1B           -10.4570489163        0.6816094624      -15.1573073719  MEMB      109             0.0000000000
     13549       109  CHL1      C2            -11.5517879521        1.0872941977      -16.9590418588  MEMB      109             0.0000000000
     13550       109  CHL1      H2A           -10.6370141076        1.4404567262      -17.4823266182  MEMB      109             0.0000000000
     13551       109  CHL1      H2B           -12.4122780342        1.6962514992      -17.3079863608  MEMB      109             0.0000000000
     13552       109  CHL1      C20           -12.2751438879        1.3012996222       -7.4698768952  MEMB      109             0.0000000000
     13553       109  CHL1      H20           -13.3213241026        1.6831251125       -7.4006307211  MEMB      109             0.0000000000
     13554       109  CHL1      C21           -11.3445701884        2.5252906801       -7.5821115684  MEMB      109             0.0000000000
     13555       109  CHL1      H21A          -11.6437174248        3.1571511030       -8.4416595070  MEMB      109             0.0000000000
     13556       109  CHL1      H21B          -10.2895652889        2.2097767465       -7.7120273580  MEMB      109             0.0000000000
     13557       109  CHL1      H21C          -11.4225650702        3.1624746672       -6.6774702567  MEMB      109             0.0000000000
     13558       109  CHL1      C22           -12.0189090208        0.4309154017       -6.1994037957  MEMB      109             0.0000000000
     13559       109  CHL1      H22A          -12.9282207444       -0.1793606710       -5.9967832528  MEMB      109             0.0000000000
     13560       109  CHL1      H22B          -11.1783559408       -0.2725519047       -6.3969921552  MEMB      109             0.0000000000
     13561       109  CHL1      C23           -11.6735705065        1.1882645732       -4.9145291627  MEMB      109             0.0000000000
     13562       109  CHL1      H23A          -10.7256983275        1.7417749741       -5.0942395589  MEMB      109             0.0000000000
     13563       109  CHL1      H23B          -12.4777310848        1.9217036954       -4.7024068464  MEMB      109             0.0000000000
     13564       109  CHL1      C24           -11.4701683817        0.2645512593       -3.6955763714  MEMB      109             0.0000000000
     13565       109  CHL1      H24A          -12.3428871762       -0.4195321817       -3.6020700656  MEMB      109             0.0000000000
     13566       109  CHL1      H24B          -10.5642991705       -0.3586997547       -3.8622513897  MEMB      109             0.0000000000
     13567       109  CHL1      C25           -11.2992277989        1.0294467389       -2.3648514429  MEMB      109             0.0000000000
     13568       109  CHL1      H25           -12.2668341311        1.5298688383       -2.1451626132  MEMB      109             0.0000000000
     13569       109  CHL1      C26           -11.0188676644        0.0950252978       -1.1770969404  MEMB      109             0.0000000000
     13570       109  CHL1      H26A          -11.8755461123       -0.5822180242       -0.9814036595  MEMB      109             0.0000000000
     13571       109  CHL1      H26B          -10.1194350792       -0.5194895247       -1.3838454072  MEMB      109             0.0000000000
     13572       109  CHL1      H26C          -10.8326327661        0.6974304120       -0.2616765404  MEMB      109             0.0000000000
     13573       109  CHL1      C27           -10.2187807805        2.1228577273       -2.4541139614  MEMB      109             0.0000000000
     13574       109  CHL1      H27A          -10.2638215717        2.7630663203       -1.5512007122  MEMB      109             0.0000000000
     13575       109  CHL1      H27B           -9.2110073404        1.6725116113       -2.5433243815  MEMB      109             0.0000000000
     13576       109  CHL1      H27C          -10.3745918394        2.7911951105       -3.3234988122  MEMB      109             0.0000000000
     13577       110  CHL1      C3             13.5365656669        0.2003640347      -17.3740032548  MEMB      110             0.0000000000
     13578       110  CHL1      H3             13.5175438450       -0.9169596379      -17.3668551155  MEMB      110             0.0000000000
     13579       110  CHL1      O3             12.8918246905        0.6668193509      -18.5453798615  MEMB      110             0.0000000000
     13580       110  CHL1      H3'            12.5750392589        1.5444225615      -18.3194057395  MEMB      110             0.0000000000
     13581       110  CHL1      C4             12.7717136678        0.7387052918      -16.1492109190  MEMB      110             0.0000000000
     13582       110  CHL1      H4A            12.2297691422        1.6632468543      -16.4202359139  MEMB      110             0.0000000000
     13583       110  CHL1      H4B            11.9562057772       -0.0084050177      -15.9882823008  MEMB      110             0.0000000000
     13584       110  CHL1      C5             13.5452695752        0.9789728325      -14.8620623772  MEMB      110             0.0000000000
     13585       110  CHL1      C6             12.9343531193        0.7201253400      -13.6960773895  MEMB      110             0.0000000000
     13586       110  CHL1      H6             11.8740697112        0.4232433110      -13.6902446376  MEMB      110             0.0000000000
     13587       110  CHL1      C7             13.5839553486        0.8785263030      -12.3560771960  MEMB      110             0.0000000000
     13588       110  CHL1      H7A            12.9445036468        1.4885652026      -11.6797588839  MEMB      110             0.0000000000
     13589       110  CHL1      H7B            13.6960027274       -0.1256522752      -11.8937064745  MEMB      110             0.0000000000
     13590       110  CHL1      C8             14.9857838131        1.5374982167      -12.4123675310  MEMB      110             0.0000000000
     13591       110  CHL1      H8             14.8543420782        2.6387347163      -12.4685476224  MEMB      110             0.0000000000
     13592       110  CHL1      C14            15.7359427631        1.1769941053      -11.1470213026  MEMB      110             0.0000000000
     13593       110  CHL1      H14            15.8198934267        0.0589767927      -11.1636280281  MEMB      110             0.0000000000
     13594       110  CHL1      C15            15.0763217355        1.5226042139       -9.8005074458  MEMB      110             0.0000000000
     13595       110  CHL1      H15A           14.7294562628        2.5797201794       -9.8280860880  MEMB      110             0.0000000000
     13596       110  CHL1      H15B           14.2119221058        0.8676864952       -9.5770737834  MEMB      110             0.0000000000
     13597       110  CHL1      C16            16.2307545939        1.3481963708       -8.8005538590  MEMB      110             0.0000000000
     13598       110  CHL1      H16A           16.3228602529        2.2773245036       -8.1973324993  MEMB      110             0.0000000000
     13599       110  CHL1      H16B           16.0682070370        0.4906112965       -8.1187087988  MEMB      110             0.0000000000
     13600       110  CHL1      C17            17.5202164903        1.1178259296       -9.6609836905  MEMB      110             0.0000000000
     13601       110  CHL1      H17            17.6453580446        0.0176159309       -9.7881784868  MEMB      110             0.0000000000
     13602       110  CHL1      C13            17.1636279190        1.6864049852      -11.0538064237  MEMB      110             0.0000000000
     13603       110  CHL1      C18            17.1744552282        3.2415392473      -11.0175852984  MEMB      110             0.0000000000
     13604       110  CHL1      H18A           16.5752271361        3.6651584380      -11.8432942339  MEMB      110             0.0000000000
     13605       110  CHL1      H18B           16.7806646430        3.6466345691      -10.0658396071  MEMB      110             0.0000000000
     13606       110  CHL1      H18C           18.2059115785        3.6173986300      -11.1516428854  MEMB      110             0.0000000000
     13607       110  CHL1      C12            17.9441376767        1.1485927875      -12.2671703180  MEMB      110             0.0000000000
     13608       110  CHL1      H12A           18.9865260230        1.5209791530      -12.2948786304  MEMB      110             0.0000000000
     13609       110  CHL1      H12B           17.9767169591        0.0389423566      -12.2112288123  MEMB      110             0.0000000000
     13610       110  CHL1      C11            17.2649915147        1.5577167439      -13.5777444376  MEMB      110             0.0000000000
     13611       110  CHL1      H11A           17.3242733799        2.6631653543      -13.6575333482  MEMB      110             0.0000000000
     13612       110  CHL1      H11B           17.8558551540        1.1291033305      -14.4131863453  MEMB      110             0.0000000000
     13613       110  CHL1      C9             15.7903748875        1.0627650846      -13.6264628426  MEMB      110             0.0000000000
     13614       110  CHL1      H9             15.8588211894       -0.0495368464      -13.5289774410  MEMB      110             0.0000000000
     13615       110  CHL1      C10            15.0560068568        1.3360934058      -14.9565987065  MEMB      110             0.0000000000
     13616       110  CHL1      C19            15.3565267073        2.8137502410      -15.3236165029  MEMB      110             0.0000000000
     13617       110  CHL1      H19A           16.4229124015        2.9426175250      -15.5933882965  MEMB      110             0.0000000000
     13618       110  CHL1      H19B           14.7986993430        3.1167974275      -16.2174609226  MEMB      110             0.0000000000
     13619       110  CHL1      H19C           15.1063789087        3.5046842883      -14.4969413045  MEMB      110             0.0000000000
     13620       110  CHL1      C1             15.6666168300        0.4621193690      -16.0686078931  MEMB      110             0.0000000000
     13621       110  CHL1      H1A            16.7274246251        0.7582927526      -16.1492545803  MEMB      110             0.0000000000
     13622       110  CHL1      H1B            15.6210762818       -0.6052656637      -15.7638522801  MEMB      110             0.0000000000
     13623       110  CHL1      C2             14.9879904940        0.6583196261      -17.4270686973  MEMB      110             0.0000000000
     13624       110  CHL1      H2A            15.4904781579        0.0750798258      -18.2180208614  MEMB      110             0.0000000000
     13625       110  CHL1      H2B            15.0569702752        1.7200979046      -17.7357392694  MEMB      110             0.0000000000
     13626       110  CHL1      C20            18.7772449426        1.6623743547       -8.9931707950  MEMB      110             0.0000000000
     13627       110  CHL1      H20            18.5437041438        2.7392642347       -8.9374439078  MEMB      110             0.0000000000
     13628       110  CHL1      C21            19.9859048864        1.5976306078       -9.9167262687  MEMB      110             0.0000000000
     13629       110  CHL1      H21A           20.9439383199        1.7528000087       -9.3863571121  MEMB      110             0.0000000000
     13630       110  CHL1      H21B           19.9015803346        2.4078163938      -10.6529380317  MEMB      110             0.0000000000
     13631       110  CHL1      H21C           19.9970955745        0.6384927248      -10.4546739348  MEMB      110             0.0000000000
     13632       110  CHL1      C22            19.0651244160        1.1328349431       -7.5442078205  MEMB      110             0.0000000000
     13633       110  CHL1      H22A           18.2856703652        1.6271054526       -6.9465540282  MEMB      110             0.0000000000
     13634       110  CHL1      H22B           18.7956265180        0.0730289743       -7.4741306981  MEMB      110             0.0000000000
     13635       110  CHL1      C23            20.5058891320        1.3466658026       -6.9406492990  MEMB      110             0.0000000000
     13636       110  CHL1      H23A           21.2439165959        0.7419973009       -7.4789062128  MEMB      110             0.0000000000
     13637       110  CHL1      H23B           20.8371457836        2.3682655222       -7.0957376480  MEMB      110             0.0000000000
     13638       110  CHL1      C24            20.7250826224        1.0407989142       -5.4410714839  MEMB      110             0.0000000000
     13639       110  CHL1      H24A           20.2086423867        1.7511193649       -4.7933649942  MEMB      110             0.0000000000
     13640       110  CHL1      H24B           20.2843279680        0.0686502936       -5.2580291533  MEMB      110             0.0000000000
     13641       110  CHL1      C25            22.1538031055        0.9499364085       -4.8594002846  MEMB      110             0.0000000000
     13642       110  CHL1      H25            22.7686841843        0.2965623737       -5.5188392164  MEMB      110             0.0000000000
     13643       110  CHL1      C26            22.8092587570        2.3302652760       -4.7255431574  MEMB      110             0.0000000000
     13644       110  CHL1      H26A           22.1856818753        2.9796310360       -4.0713023121  MEMB      110             0.0000000000
     13645       110  CHL1      H26B           23.8152686309        2.2453754958       -4.2636302705  MEMB      110             0.0000000000
     13646       110  CHL1      H26C           22.9028608713        2.8140067438       -5.7198861899  MEMB      110             0.0000000000
     13647       110  CHL1      C27            22.0674456779        0.2943364148       -3.4658791367  MEMB      110             0.0000000000
     13648       110  CHL1      H27A           21.4160075403        0.8962226012       -2.7953853845  MEMB      110             0.0000000000
     13649       110  CHL1      H27B           21.6270863700       -0.7202528765       -3.5407158895  MEMB      110             0.0000000000
     13650       110  CHL1      H27C           23.0703393533        0.2055764925       -3.0025380143  MEMB      110             0.0000000000
     13651       111  CHL1      C3             -2.7085633608       14.2058866271      -17.3882722650  MEMB      111             0.0000000000
     13652       111  CHL1      H3             -3.2866339846       15.0387759919      -16.9222201171  MEMB      111             0.0000000000
     13653       111  CHL1      O3             -2.8958686853       14.2374026009      -18.7990867720  MEMB      111             0.0000000000
     13654       111  CHL1      H3'            -3.8503265568       14.1534962005      -18.9691496851  MEMB      111             0.0000000000
     13655       111  CHL1      C4             -1.2141442668       14.3544856924      -17.0203022988  MEMB      111             0.0000000000
     13656       111  CHL1      H4A            -0.6744013299       13.4945549001      -17.4731411076  MEMB      111             0.0000000000
     13657       111  CHL1      H4B            -0.8037981766       15.2699975440      -17.5006829078  MEMB      111             0.0000000000
     13658       111  CHL1      C5             -1.0304161674       14.3564053240      -15.5109998780  MEMB      111             0.0000000000
     13659       111  CHL1      C6             -0.4531870441       15.3431009837      -14.8044906130  MEMB      111             0.0000000000
     13660       111  CHL1      H6             -0.0308472453       16.2129904490      -15.3293363085  MEMB      111             0.0000000000
     13661       111  CHL1      C7             -0.2957288028       15.2979366830      -13.2998673368  MEMB      111             0.0000000000
     13662       111  CHL1      H7A             0.6928179521       15.6873212498      -12.9760860278  MEMB      111             0.0000000000
     13663       111  CHL1      H7B            -1.0927982118       15.9223088381      -12.8789232680  MEMB      111             0.0000000000
     13664       111  CHL1      C8             -0.5869633510       13.9576971421      -12.5831976145  MEMB      111             0.0000000000
     13665       111  CHL1      H8              0.3310669488       13.3497307175      -12.7093032856  MEMB      111             0.0000000000
     13666       111  CHL1      C14            -1.0113350823       14.0986556647      -11.0936715234  MEMB      111             0.0000000000
     13667       111  CHL1      H14            -2.0401042951       14.5453526431      -11.1170638602  MEMB      111             0.0000000000
     13668       111  CHL1      C15            -0.2678247915       15.0340669076      -10.1504648520  MEMB      111             0.0000000000
     13669       111  CHL1      H15A            0.8069039672       14.8567333760      -10.2717607415  MEMB      111             0.0000000000
     13670       111  CHL1      H15B           -0.4784459950       16.1009397342      -10.3333542188  MEMB      111             0.0000000000
     13671       111  CHL1      C16            -0.6364298720       14.5863862865       -8.7253208908  MEMB      111             0.0000000000
     13672       111  CHL1      H16A            0.2904432652       14.6242908767       -8.1459686855  MEMB      111             0.0000000000
     13673       111  CHL1      H16B           -1.3664190573       15.2698436668       -8.2462372081  MEMB      111             0.0000000000
     13674       111  CHL1      C17            -1.2090594619       13.1484035854       -8.8017512145  MEMB      111             0.0000000000
     13675       111  CHL1      H17            -2.3049127560       13.2856550535       -8.6306821598  MEMB      111             0.0000000000
     13676       111  CHL1      C13            -1.1246243725       12.7672512244      -10.3326114419  MEMB      111             0.0000000000
     13677       111  CHL1      C18             0.1716955014       11.9575340556      -10.5550518648  MEMB      111             0.0000000000
     13678       111  CHL1      H18A            0.3071649182       11.6644004328      -11.6116010402  MEMB      111             0.0000000000
     13679       111  CHL1      H18B            1.0516603500       12.5449236166      -10.2261995829  MEMB      111             0.0000000000
     13680       111  CHL1      H18C            0.1424465790       11.0067855073      -10.0015174931  MEMB      111             0.0000000000
     13681       111  CHL1      C12            -2.3591916592       12.0970900150      -10.9668546405  MEMB      111             0.0000000000
     13682       111  CHL1      H12A           -2.4963309812       11.0766043981      -10.5589905943  MEMB      111             0.0000000000
     13683       111  CHL1      H12B           -3.2731760551       12.6830111875      -10.7251203020  MEMB      111             0.0000000000
     13684       111  CHL1      C11            -2.2451131315       12.0288015028      -12.5137656464  MEMB      111             0.0000000000
     13685       111  CHL1      H11A           -1.5282587982       11.2131380460      -12.7231900119  MEMB      111             0.0000000000
     13686       111  CHL1      H11B           -3.2437596021       11.7473080206      -12.9125600164  MEMB      111             0.0000000000
     13687       111  CHL1      C9             -1.7639644807       13.2981345479      -13.2754088191  MEMB      111             0.0000000000
     13688       111  CHL1      H9             -2.6037432042       14.0363569202      -13.1737284489  MEMB      111             0.0000000000
     13689       111  CHL1      C10            -1.5854773617       13.1101092297      -14.8143036834  MEMB      111             0.0000000000
     13690       111  CHL1      C19            -0.4702717200       12.0681282248      -15.1219526719  MEMB      111             0.0000000000
     13691       111  CHL1      H19A           -0.4519167488       11.2553139069      -14.3815325278  MEMB      111             0.0000000000
     13692       111  CHL1      H19B           -0.6298195604       11.6177923184      -16.1228817007  MEMB      111             0.0000000000
     13693       111  CHL1      H19C            0.5511106848       12.5107464638      -15.1031766988  MEMB      111             0.0000000000
     13694       111  CHL1      C1             -2.9790517414       12.6792758786      -15.3812131733  MEMB      111             0.0000000000
     13695       111  CHL1      H1A            -3.1322987162       11.6118656406      -15.1198299120  MEMB      111             0.0000000000
     13696       111  CHL1      H1B            -3.7652956345       13.2660917416      -14.8516388006  MEMB      111             0.0000000000
     13697       111  CHL1      C2             -3.2199815772       12.8579796874      -16.8920302560  MEMB      111             0.0000000000
     13698       111  CHL1      H2A            -4.3063164276       12.7826635890      -17.1154545491  MEMB      111             0.0000000000
     13699       111  CHL1      H2B            -2.6978657228       12.0509333209      -17.4523865029  MEMB      111             0.0000000000
     13700       111  CHL1      C20            -0.7027454749       12.1424143287       -7.6791981801  MEMB      111             0.0000000000
     13701       111  CHL1      H20             0.0124921106       11.4335932779       -8.1261474074  MEMB      111             0.0000000000
     13702       111  CHL1      C21            -1.9655223043       11.3745381992       -7.2191526216  MEMB      111             0.0000000000
     13703       111  CHL1      H21A           -2.3502451112       10.7331382750       -8.0393818322  MEMB      111             0.0000000000
     13704       111  CHL1      H21B           -2.7699744375       12.0793910839       -6.9219173960  MEMB      111             0.0000000000
     13705       111  CHL1      H21C           -1.7430821235       10.7349552655       -6.3420803419  MEMB      111             0.0000000000
     13706       111  CHL1      C22             0.1073180468       12.6418660427       -6.4116884726  MEMB      111             0.0000000000
     13707       111  CHL1      H22A            0.7095297124       13.5187151920       -6.6634773005  MEMB      111             0.0000000000
     13708       111  CHL1      H22B           -0.6158477207       12.9927268043       -5.6502957689  MEMB      111             0.0000000000
     13709       111  CHL1      C23             1.1759748110       11.7233023798       -5.6851792776  MEMB      111             0.0000000000
     13710       111  CHL1      H23A            0.6220214953       11.0826900012       -4.9783553848  MEMB      111             0.0000000000
     13711       111  CHL1      H23B            1.7369583227       11.0963516180       -6.4056209893  MEMB      111             0.0000000000
     13712       111  CHL1      C24             2.1752386101       12.6316112247       -4.9071211263  MEMB      111             0.0000000000
     13713       111  CHL1      H24A            2.8934815593       13.0972676957       -5.5848261434  MEMB      111             0.0000000000
     13714       111  CHL1      H24B            1.5036237635       13.3928943117       -4.4903908166  MEMB      111             0.0000000000
     13715       111  CHL1      C25             3.1781136730       12.3357164154       -3.7695868546  MEMB      111             0.0000000000
     13716       111  CHL1      H25             4.0663807347       11.7825739873       -4.1454797306  MEMB      111             0.0000000000
     13717       111  CHL1      C26             3.6156707714       13.7359475003       -3.2562623400  MEMB      111             0.0000000000
     13718       111  CHL1      H26A            4.3156194282       13.6856232540       -2.4004714379  MEMB      111             0.0000000000
     13719       111  CHL1      H26B            4.0828822955       14.3253017311       -4.0729654306  MEMB      111             0.0000000000
     13720       111  CHL1      H26C            2.7138397732       14.2987499075       -2.9198375662  MEMB      111             0.0000000000
     13721       111  CHL1      C27             2.5398128171       11.5949949745       -2.6302486202  MEMB      111             0.0000000000
     13722       111  CHL1      H27A            1.6536768430       12.2085631507       -2.3726807243  MEMB      111             0.0000000000
     13723       111  CHL1      H27B            2.1994902720       10.5865459871       -2.9364935896  MEMB      111             0.0000000000
     13724       111  CHL1      H27C            3.2056517775       11.5205263243       -1.7419261949  MEMB      111             0.0000000000
     13725       112  23SM      N               3.7615970821      -15.4560324977      -27.9775899352  MEMB      112             0.0000000000
     13726       112  23SM      C15             2.5072410680      -16.2638058817      -28.0558209600  MEMB      112             0.0000000000
     13727       112  23SM      H15A            1.7632203854      -15.8405180076      -28.7286550585  MEMB      112             0.0000000000
     13728       112  23SM      H15B            2.0647124136      -16.2949850556      -27.0536346023  MEMB      112             0.0000000000
     13729       112  23SM      H15C            2.7230107720      -17.2796544447      -28.3427035346  MEMB      112             0.0000000000
     13730       112  23SM      C14             4.6968912598      -16.0972951729      -26.9903389085  MEMB      112             0.0000000000
     13731       112  23SM      H14A            4.2776629306      -16.0226697212      -25.9790684156  MEMB      112             0.0000000000
     13732       112  23SM      H14B            5.6516709648      -15.5902862227      -26.9234025316  MEMB      112             0.0000000000
     13733       112  23SM      H14C            4.8950174846      -17.1367999012      -27.1951020355  MEMB      112             0.0000000000
     13734       112  23SM      C13             4.4279666353      -15.3575623770      -29.3142026774  MEMB      112             0.0000000000
     13735       112  23SM      H13A            4.8133939334      -16.3230257031      -29.6046519588  MEMB      112             0.0000000000
     13736       112  23SM      H13B            5.2668664511      -14.6627398882      -29.2644580560  MEMB      112             0.0000000000
     13737       112  23SM      H13C            3.7128004011      -15.0009999660      -30.0546581391  MEMB      112             0.0000000000
     13738       112  23SM      C12             3.4411731167      -14.0394997389      -27.5072243583  MEMB      112             0.0000000000
     13739       112  23SM      H12A            2.9713737805      -13.5223484311      -28.3408524385  MEMB      112             0.0000000000
     13740       112  23SM      H12B            4.3705702723      -13.5232481172      -27.2986705339  MEMB      112             0.0000000000
     13741       112  23SM      C11             2.5442242931      -13.8384670449      -26.2564643457  MEMB      112             0.0000000000
     13742       112  23SM      H11A            1.4956528293      -14.1011632964      -26.5304573239  MEMB      112             0.0000000000
     13743       112  23SM      H11B            2.5369855283      -12.7540602046      -25.9891701259  MEMB      112             0.0000000000
     13744       112  23SM      P               3.9653525714      -14.2464687388      -24.0348001352  MEMB      112             0.0000000000
     13745       112  23SM      O13             5.1430407221      -15.1372634454      -24.0576057073  MEMB      112             0.0000000000
     13746       112  23SM      O14             4.2364662556      -12.7944910843      -24.0722484488  MEMB      112             0.0000000000
     13747       112  23SM      O11             3.1006180780      -14.5755970706      -22.7606735478  MEMB      112             0.0000000000
     13748       112  23SM      O12             2.9414784048      -14.6549498255      -25.1662051741  MEMB      112             0.0000000000
     13749       112  23SM      C1S             2.3346426380      -13.5762608282      -22.1033316609  MEMB      112             0.0000000000
     13750       112  23SM      H1S             1.2824066976      -13.6041484008      -22.4570999755  MEMB      112             0.0000000000
     13751       112  23SM      H1T             2.7151978966      -12.5443518426      -22.2916918085  MEMB      112             0.0000000000
     13752       112  23SM      NF              3.8228953193      -13.9029099513      -20.1824515760  MEMB      112             0.0000000000
     13753       112  23SM      HNF             4.2246689923      -14.8124700699      -20.2051326114  MEMB      112             0.0000000000
     13754       112  23SM      C2S             2.4262956997      -13.8011497362      -20.5740501334  MEMB      112             0.0000000000
     13755       112  23SM      H2S             1.9624941335      -12.9071319516      -20.0940221315  MEMB      112             0.0000000000
     13756       112  23SM      C3S             1.6255624292      -15.0493091400      -20.1317604375  MEMB      112             0.0000000000
     13757       112  23SM      H3S             2.1482850262      -15.9667217574      -20.4689762065  MEMB      112             0.0000000000
     13758       112  23SM      O3              0.2946249356      -15.0848719693      -20.6586942766  MEMB      112             0.0000000000
     13759       112  23SM      HO3             0.3234207500      -14.4898587173      -21.4133506025  MEMB      112             0.0000000000
     13760       112  23SM      C4S             1.5776399906      -14.9983113579      -18.6263013673  MEMB      112             0.0000000000
     13761       112  23SM      H4S             1.0062712956      -14.1499735302      -18.2282158112  MEMB      112             0.0000000000
     13762       112  23SM      C5S             2.1725023135      -15.8528226690      -17.7712599804  MEMB      112             0.0000000000
     13763       112  23SM      H5S             2.7463508044      -16.6998464502      -18.1838480074  MEMB      112             0.0000000000
     13764       112  23SM      C6S             2.1312891332      -15.7806060626      -16.2616080573  MEMB      112             0.0000000000
     13765       112  23SM      H6S             3.1824823509      -15.7744943799      -15.8865944606  MEMB      112             0.0000000000
     13766       112  23SM      H6T             1.6653969496      -16.7052865276      -15.8563897048  MEMB      112             0.0000000000
     13767       112  23SM      C7S             1.4288322954      -14.5590706447      -15.6233096002  MEMB      112             0.0000000000
     13768       112  23SM      H7S             0.3283185462      -14.6471570727      -15.7483451756  MEMB      112             0.0000000000
     13769       112  23SM      H7T             1.7704149546      -13.6300932885      -16.1367159365  MEMB      112             0.0000000000
     13770       112  23SM      C8S             1.7690960452      -14.3682359059      -14.1326712170  MEMB      112             0.0000000000
     13771       112  23SM      H8S             1.3459862421      -13.4005225717      -13.7812356208  MEMB      112             0.0000000000
     13772       112  23SM      H8T             2.8761262802      -14.2941976813      -14.0374890114  MEMB      112             0.0000000000
     13773       112  23SM      C9S             1.2833673695      -15.4699717086      -13.1798416482  MEMB      112             0.0000000000
     13774       112  23SM      H9S             1.5460275521      -16.4745073704      -13.5775860126  MEMB      112             0.0000000000
     13775       112  23SM      H9T             0.1751216214      -15.4231517009      -13.0868365009  MEMB      112             0.0000000000
     13776       112  23SM      C10S            1.9310351105      -15.3002300645      -11.7968243108  MEMB      112             0.0000000000
     13777       112  23SM      H10S            1.7404872671      -14.2672058118      -11.4277574993  MEMB      112             0.0000000000
     13778       112  23SM      H10T            3.0305673483      -15.4257264649      -11.8938983207  MEMB      112             0.0000000000
     13779       112  23SM      C11S            1.4295263071      -16.3039549133      -10.7623543588  MEMB      112             0.0000000000
     13780       112  23SM      H11S            1.5895403624      -17.3408289338      -11.1358984174  MEMB      112             0.0000000000
     13781       112  23SM      H11T            0.3317781843      -16.1602525503      -10.6355966281  MEMB      112             0.0000000000
     13782       112  23SM      C12S            2.1184096461      -16.1554433237       -9.3959336003  MEMB      112             0.0000000000
     13783       112  23SM      H12S            2.0536784872      -15.0981188973       -9.0566712339  MEMB      112             0.0000000000
     13784       112  23SM      H12T            3.1919521212      -16.4322637644       -9.4701596133  MEMB      112             0.0000000000
     13785       112  23SM      C13S            1.4049470572      -17.0548000421       -8.3927508864  MEMB      112             0.0000000000
     13786       112  23SM      H13S            1.4698393357      -18.1094431940       -8.7461558014  MEMB      112             0.0000000000
     13787       112  23SM      H13T            0.3379476701      -16.7553889696       -8.4330006833  MEMB      112             0.0000000000
     13788       112  23SM      C14S            1.8571988190      -16.9915802839       -6.9302590016  MEMB      112             0.0000000000
     13789       112  23SM      H14S            1.7404107940      -15.9536488969       -6.5481019889  MEMB      112             0.0000000000
     13790       112  23SM      H14T            2.9269262875      -17.2650792874       -6.8461463928  MEMB      112             0.0000000000
     13791       112  23SM      C15S            0.9580085819      -17.9433457604       -6.1283686738  MEMB      112             0.0000000000
     13792       112  23SM      H15S            0.8792660897      -18.9270757865       -6.6458626817  MEMB      112             0.0000000000
     13793       112  23SM      H15T           -0.0327306782      -17.4628167570       -6.1293779902  MEMB      112             0.0000000000
     13794       112  23SM      C16S            1.2432714196      -18.1709208107       -4.6491060862  MEMB      112             0.0000000000
     13795       112  23SM      H16S            2.0124159743      -18.9421215367       -4.5533320478  MEMB      112             0.0000000000
     13796       112  23SM      H16T            0.3408604971      -18.6118872661       -4.1693855123  MEMB      112             0.0000000000
     13797       112  23SM      C17S            1.6424060155      -16.9106862157       -3.8933665335  MEMB      112             0.0000000000
     13798       112  23SM      H17S            0.9382379855      -16.0856008977       -4.1456868714  MEMB      112             0.0000000000
     13799       112  23SM      H17T            2.6614921328      -16.6055470697       -4.2227549516  MEMB      112             0.0000000000
     13800       112  23SM      C18S            1.6300047315      -17.1484116257       -2.3892808303  MEMB      112             0.0000000000
     13801       112  23SM      H18S            2.3477120681      -17.9531045262       -2.1276016684  MEMB      112             0.0000000000
     13802       112  23SM      H18T            0.6218680439      -17.4779688471       -2.0606799934  MEMB      112             0.0000000000
     13803       112  23SM      H18U            1.9048899674      -16.2210763304       -1.8433282632  MEMB      112             0.0000000000
     13804       112  23SM      C1F             4.5453950525      -12.7940409781      -20.1856695555  MEMB      112             0.0000000000
     13805       112  23SM      OF              3.9876912370      -11.7049444595      -20.2521799055  MEMB      112             0.0000000000
     13806       112  23SM      C2F             6.0285849292      -12.9240084328      -20.0455783304  MEMB      112             0.0000000000
     13807       112  23SM      H2F             6.5497338881      -12.3280122700      -20.8173422261  MEMB      112             0.0000000000
     13808       112  23SM      H2G             6.3345674767      -13.9858877808      -20.1544188840  MEMB      112             0.0000000000
     13809       112  23SM      C3F             6.4150897718      -12.3885840393      -18.6566810954  MEMB      112             0.0000000000
     13810       112  23SM      H3F             6.0651872685      -11.3383943227      -18.5622434126  MEMB      112             0.0000000000
     13811       112  23SM      H3G             7.5178165131      -12.3859389322      -18.5580222344  MEMB      112             0.0000000000
     13812       112  23SM      C4F             5.7792467042      -13.2389360405      -17.5608405781  MEMB      112             0.0000000000
     13813       112  23SM      H4F             5.8668091443      -14.3104342914      -17.8607079251  MEMB      112             0.0000000000
     13814       112  23SM      H4G             4.6886256650      -13.0200773940      -17.4751597614  MEMB      112             0.0000000000
     13815       112  23SM      C5F             6.4430766503      -13.0963847849      -16.1991062733  MEMB      112             0.0000000000
     13816       112  23SM      H5F             6.1950559492      -12.1117467039      -15.7486745530  MEMB      112             0.0000000000
     13817       112  23SM      H5G             7.5484787215      -13.1759402122      -16.3004525427  MEMB      112             0.0000000000
     13818       112  23SM      C6F             5.9544906490      -14.2149182450      -15.2805857053  MEMB      112             0.0000000000
     13819       112  23SM      H6F             6.2502700786      -15.2060694724      -15.6984253353  MEMB      112             0.0000000000
     13820       112  23SM      H6G             4.8415251895      -14.1935320713      -15.2463613811  MEMB      112             0.0000000000
     13821       112  23SM      C7F             6.4892996425      -14.0970423257      -13.8572423532  MEMB      112             0.0000000000
     13822       112  23SM      H7F             6.2381746047      -13.1022590530      -13.4290835602  MEMB      112             0.0000000000
     13823       112  23SM      H7G             7.5981201829      -14.1979340951      -13.8779595508  MEMB      112             0.0000000000
     13824       112  23SM      C8F             5.9135974395      -15.2064333156      -12.9773103021  MEMB      112             0.0000000000
     13825       112  23SM      H8F             6.0812191400      -16.1776778559      -13.4994121382  MEMB      112             0.0000000000
     13826       112  23SM      H8G             4.8186088389      -15.0652669529      -12.8713480208  MEMB      112             0.0000000000
     13827       112  23SM      C9F             6.5879837056      -15.2712671229      -11.6085607250  MEMB      112             0.0000000000
     13828       112  23SM      H9F             6.3154840019      -14.3761903909      -11.0085247341  MEMB      112             0.0000000000
     13829       112  23SM      H9G             7.6898741293      -15.2468594049      -11.7731558218  MEMB      112             0.0000000000
     13830       112  23SM      C10F            6.2401082471      -16.5556211361      -10.8509172530  MEMB      112             0.0000000000
     13831       112  23SM      H10F            6.3864725343      -17.4236317430      -11.5347610858  MEMB      112             0.0000000000
     13832       112  23SM      H10G            5.1664454132      -16.5401388581      -10.5594851676  MEMB      112             0.0000000000
     13833       112  23SM      C11F            7.1190586671      -16.7574062739       -9.6122357973  MEMB      112             0.0000000000
     13834       112  23SM      H11F            8.1915331489      -16.7230197639       -9.9056083469  MEMB      112             0.0000000000
     13835       112  23SM      H11G            6.9222099748      -17.7670377300       -9.1904342551  MEMB      112             0.0000000000
     13836       112  23SM      C12F            6.8659152280      -15.7142859116       -8.5225553359  MEMB      112             0.0000000000
     13837       112  23SM      H12F            5.7703379879      -15.6104258425       -8.3519242768  MEMB      112             0.0000000000
     13838       112  23SM      H12G            7.2544874510      -14.7277272006       -8.8649643671  MEMB      112             0.0000000000
     13839       112  23SM      C13F            7.5560337149      -16.0963071923       -7.2128341281  MEMB      112             0.0000000000
     13840       112  23SM      H13F            8.6172837900      -16.3559956015       -7.4364570009  MEMB      112             0.0000000000
     13841       112  23SM      H13G            7.0898977862      -16.9984635655       -6.7685885986  MEMB      112             0.0000000000
     13842       112  23SM      C14F            7.5443744871      -14.9702686011       -6.1799948728  MEMB      112             0.0000000000
     13843       112  23SM      H14F            8.0520804418      -14.0802077299       -6.6153052115  MEMB      112             0.0000000000
     13844       112  23SM      H14G            8.1451726690      -15.3099932534       -5.3088110882  MEMB      112             0.0000000000
     13845       112  23SM      C15F            6.1635172298      -14.5484383112       -5.6619749939  MEMB      112             0.0000000000
     13846       112  23SM      H15F            5.6631680289      -15.4306858253       -5.2046481947  MEMB      112             0.0000000000
     13847       112  23SM      H15G            5.5310701400      -14.1929738085       -6.5053503870  MEMB      112             0.0000000000
     13848       112  23SM      C16F            6.3233092142      -13.4202977094       -4.6288591891  MEMB      112             0.0000000000
     13849       112  23SM      H16F            6.8494555339      -12.5745993869       -5.1291901042  MEMB      112             0.0000000000
     13850       112  23SM      H16G            6.9845440675      -13.7672859316       -3.8064700082  MEMB      112             0.0000000000
     13851       112  23SM      C17F            5.0195894130      -12.8797965416       -4.0241385325  MEMB      112             0.0000000000
     13852       112  23SM      H17F            4.4112470109      -12.4423322520       -4.8467504616  MEMB      112             0.0000000000
     13853       112  23SM      H17G            5.2733802331      -12.0559188585       -3.3189017887  MEMB      112             0.0000000000
     13854       112  23SM      C18F            4.1693744180      -13.9255883867       -3.2882108758  MEMB      112             0.0000000000
     13855       112  23SM      H18F            3.9792280427      -14.7876196357       -3.9631237758  MEMB      112             0.0000000000
     13856       112  23SM      H18G            3.1768441189      -13.4744317166       -3.0564640513  MEMB      112             0.0000000000
     13857       112  23SM      C19F            4.7742980168      -14.4352539113       -1.9699149197  MEMB      112             0.0000000000
     13858       112  23SM      H19F            5.8021389371      -14.8238847936       -2.1202209269  MEMB      112             0.0000000000
     13859       112  23SM      H19G            4.1455182218      -15.2958818318       -1.6485364948  MEMB      112             0.0000000000
     13860       112  23SM      C20F            4.7573843305      -13.3771534296       -0.8556506625  MEMB      112             0.0000000000
     13861       112  23SM      H20F            3.8567503543      -12.7389319109       -1.0216959098  MEMB      112             0.0000000000
     13862       112  23SM      H20G            5.6484102261      -12.7170881081       -0.9119365496  MEMB      112             0.0000000000
     13863       112  23SM      C21F            4.6189153937      -13.9799256950        0.5466954567  MEMB      112             0.0000000000
     13864       112  23SM      H21F            4.1395732150      -14.9788262549        0.4723101092  MEMB      112             0.0000000000
     13865       112  23SM      H21G            3.9044769867      -13.3634197305        1.1359959411  MEMB      112             0.0000000000
     13866       112  23SM      C22F            5.9208017007      -14.1155602093        1.3462595308  MEMB      112             0.0000000000
     13867       112  23SM      H22F            6.4790527145      -13.1683317621        1.4454871447  MEMB      112             0.0000000000
     13868       112  23SM      H22G            6.6312230450      -14.7769082966        0.8101817156  MEMB      112             0.0000000000
     13869       112  23SM      C23F            5.5854321098      -14.6406629298        2.7408060613  MEMB      112             0.0000000000
     13870       112  23SM      H23F            6.3773004962      -15.2985740405        3.1568209080  MEMB      112             0.0000000000
     13871       112  23SM      H23G            4.6583557023      -15.2427440179        2.6801434508  MEMB      112             0.0000000000
     13872       112  23SM      H23H            5.3740304523      -13.7989517934        3.4295023764  MEMB      112             0.0000000000
     13873       113  DOPE      N              -2.9553057759      -16.4597132158      -20.6741225399  MEMB      113             0.0000000000
     13874       113  DOPE      HN1            -2.2421959836      -16.6903968215      -21.4054140824  MEMB      113             0.0000000000
     13875       113  DOPE      HN2            -3.3410237190      -17.3042983866      -20.2058470189  MEMB      113             0.0000000000
     13876       113  DOPE      HN3            -3.7592988840      -15.9280115333      -21.0688823398  MEMB      113             0.0000000000
     13877       113  DOPE      C12            -2.3958619867      -15.5004628823      -19.6620305927  MEMB      113             0.0000000000
     13878       113  DOPE      H12A           -1.9906769185      -14.6357241559      -20.2326051495  MEMB      113             0.0000000000
     13879       113  DOPE      H12B           -1.5853261182      -15.9978637692      -19.0941649385  MEMB      113             0.0000000000
     13880       113  DOPE      C11            -3.5084213737      -14.9624199573      -18.7674101545  MEMB      113             0.0000000000
     13881       113  DOPE      H11A           -3.1322562116      -14.0412959377      -18.2529583578  MEMB      113             0.0000000000
     13882       113  DOPE      H11B           -3.7377665206      -15.7185444336      -17.9782536372  MEMB      113             0.0000000000
     13883       113  DOPE      P              -6.0113837426      -14.2782530235      -18.7888980566  MEMB      113             0.0000000000
     13884       113  DOPE      O13            -6.8799324024      -15.4871343056      -18.8370326845  MEMB      113             0.0000000000
     13885       113  DOPE      O14            -6.5320522204      -13.0551332479      -19.4119112928  MEMB      113             0.0000000000
     13886       113  DOPE      O11            -5.4327144847      -14.0427170321      -17.3389864433  MEMB      113             0.0000000000
     13887       113  DOPE      O12            -4.6658294024      -14.6674305877      -19.5619429374  MEMB      113             0.0000000000
     13888       113  DOPE      C1             -6.1268774724      -14.4485838423      -16.1720695782  MEMB      113             0.0000000000
     13889       113  DOPE      HA             -5.3926511722      -14.7646298312      -15.4009674659  MEMB      113             0.0000000000
     13890       113  DOPE      HB             -6.8025047593      -15.3166754938      -16.3605800545  MEMB      113             0.0000000000
     13891       113  DOPE      C2             -6.9401406581      -13.2768706601      -15.5944019724  MEMB      113             0.0000000000
     13892       113  DOPE      HS             -7.5393510954      -12.8303917573      -16.4231825027  MEMB      113             0.0000000000
     13893       113  DOPE      O21            -6.0723157419      -12.2948163020      -15.0099609267  MEMB      113             0.0000000000
     13894       113  DOPE      C21            -5.5182050639      -11.3560742297      -15.7596191930  MEMB      113             0.0000000000
     13895       113  DOPE      O22            -5.6191484783      -11.1711229849      -16.9518475671  MEMB      113             0.0000000000
     13896       113  DOPE      C22            -4.9353611839      -10.3214391830      -14.7988691128  MEMB      113             0.0000000000
     13897       113  DOPE      H2R            -4.8306374450       -9.3864006420      -15.3888168686  MEMB      113             0.0000000000
     13898       113  DOPE      H2S            -3.9323989779      -10.6455163437      -14.4857185846  MEMB      113             0.0000000000
     13899       113  DOPE      C3             -7.9481047973      -13.8069075261      -14.5196551800  MEMB      113             0.0000000000
     13900       113  DOPE      HX             -8.5241141323      -14.6160520566      -15.0298226249  MEMB      113             0.0000000000
     13901       113  DOPE      HY             -8.6598035930      -12.9854217738      -14.2895168287  MEMB      113             0.0000000000
     13902       113  DOPE      O31            -7.3053018024      -14.2643699974      -13.2934568139  MEMB      113             0.0000000000
     13903       113  DOPE      C31            -8.0309909678      -15.1518928456      -12.5948822706  MEMB      113             0.0000000000
     13904       113  DOPE      O32            -9.0316258839      -15.7058537420      -13.0060022552  MEMB      113             0.0000000000
     13905       113  DOPE      C32            -7.5204703072      -15.2878167367      -11.1504057910  MEMB      113             0.0000000000
     13906       113  DOPE      H2X            -6.7017217759      -16.0318364396      -11.1305541674  MEMB      113             0.0000000000
     13907       113  DOPE      H2Y            -7.0669028258      -14.3229118632      -10.8714976751  MEMB      113             0.0000000000
     13908       113  DOPE      C23            -5.8663870213      -10.0591030830      -13.5926185120  MEMB      113             0.0000000000
     13909       113  DOPE      H3R            -6.9278861857      -10.3002562082      -13.8379043366  MEMB      113             0.0000000000
     13910       113  DOPE      H3S            -5.8173502024       -8.9755958615      -13.3340521083  MEMB      113             0.0000000000
     13911       113  DOPE      C24            -5.5606225928      -10.8447547471      -12.3260794273  MEMB      113             0.0000000000
     13912       113  DOPE      H4R            -5.9433938306      -11.8894874400      -12.4141428142  MEMB      113             0.0000000000
     13913       113  DOPE      H4S            -6.1245036996      -10.3047202622      -11.5410678242  MEMB      113             0.0000000000
     13914       113  DOPE      C25            -4.1028770056      -10.8599204652      -11.8834582592  MEMB      113             0.0000000000
     13915       113  DOPE      H5R            -3.7211834803       -9.8173971847      -11.8288723112  MEMB      113             0.0000000000
     13916       113  DOPE      H5S            -3.4881719361      -11.4296060815      -12.6141816630  MEMB      113             0.0000000000
     13917       113  DOPE      C26            -3.9810354880      -11.5480829226      -10.5287845536  MEMB      113             0.0000000000
     13918       113  DOPE      H6R            -4.4183371084      -12.5660757509      -10.6464868189  MEMB      113             0.0000000000
     13919       113  DOPE      H6S            -4.5846590611      -11.0079739049       -9.7648819688  MEMB      113             0.0000000000
     13920       113  DOPE      C27            -2.5311634722      -11.6930329944      -10.0510180272  MEMB      113             0.0000000000
     13921       113  DOPE      H7R            -2.2179329673      -10.7537830443       -9.5410264869  MEMB      113             0.0000000000
     13922       113  DOPE      H7S            -1.8829517168      -11.8285020243      -10.9434180382  MEMB      113             0.0000000000
     13923       113  DOPE      C28            -2.3115898894      -12.9045272514       -9.1302394332  MEMB      113             0.0000000000
     13924       113  DOPE      H8R            -1.3118327671      -12.8070470908       -8.6507992428  MEMB      113             0.0000000000
     13925       113  DOPE      H8S            -2.2728582689      -13.8265435321       -9.7510347237  MEMB      113             0.0000000000
     13926       113  DOPE      C29            -3.4403464994      -13.0080463325       -8.1400521127  MEMB      113             0.0000000000
     13927       113  DOPE      H9R            -4.4137298437      -13.2892681028       -8.5699944568  MEMB      113             0.0000000000
     13928       113  DOPE      C210           -3.3778022726      -12.7786405994       -6.8275207265  MEMB      113             0.0000000000
     13929       113  DOPE      H10R           -4.3059584345      -12.8698889990       -6.2442118041  MEMB      113             0.0000000000
     13930       113  DOPE      C211           -2.1570327842      -12.3679714108       -6.0495002914  MEMB      113             0.0000000000
     13931       113  DOPE      H11R           -1.2842971498      -12.1442878637       -6.7010775611  MEMB      113             0.0000000000
     13932       113  DOPE      H11S           -1.8492740097      -13.2260918803       -5.4225952328  MEMB      113             0.0000000000
     13933       113  DOPE      C212           -2.3824482346      -11.1229893542       -5.1703600011  MEMB      113             0.0000000000
     13934       113  DOPE      H12R           -2.4956483858      -10.2345949498       -5.8342550437  MEMB      113             0.0000000000
     13935       113  DOPE      H12S           -1.4732490479      -10.9343921310       -4.5588701619  MEMB      113             0.0000000000
     13936       113  DOPE      C213           -3.6125921503      -11.1822165118       -4.2469440173  MEMB      113             0.0000000000
     13937       113  DOPE      H13R           -4.4955492248      -11.0069808783       -4.9045811197  MEMB      113             0.0000000000
     13938       113  DOPE      H13S           -3.5559014689      -10.3404754732       -3.5222304603  MEMB      113             0.0000000000
     13939       113  DOPE      C214           -3.9040400787      -12.4869169960       -3.4803335656  MEMB      113             0.0000000000
     13940       113  DOPE      H14R           -4.0254853712      -13.3474634401       -4.1704872314  MEMB      113             0.0000000000
     13941       113  DOPE      H14S           -4.8832083335      -12.3307889218       -2.9850393156  MEMB      113             0.0000000000
     13942       113  DOPE      C215           -2.9345479696      -12.8631574252       -2.3571159781  MEMB      113             0.0000000000
     13943       113  DOPE      H15R           -3.4323926072      -13.6324326697       -1.7219184364  MEMB      113             0.0000000000
     13944       113  DOPE      H15S           -2.7398859364      -11.9755232939       -1.7165139193  MEMB      113             0.0000000000
     13945       113  DOPE      C216           -1.6229157842      -13.4450583482       -2.8823837545  MEMB      113             0.0000000000
     13946       113  DOPE      H16R           -1.1002810004      -12.6546242724       -3.4620773704  MEMB      113             0.0000000000
     13947       113  DOPE      H16S           -1.8239568885      -14.2912347975       -3.5693729938  MEMB      113             0.0000000000
     13948       113  DOPE      C217           -0.6665680867      -13.8667343553       -1.7753362353  MEMB      113             0.0000000000
     13949       113  DOPE      H17R           -0.6664525548      -13.0207875670       -1.0545720981  MEMB      113             0.0000000000
     13950       113  DOPE      H17S            0.3593787432      -13.9509261620       -2.2034950512  MEMB      113             0.0000000000
     13951       113  DOPE      C218           -1.0204546465      -15.1750692037       -1.0655122678  MEMB      113             0.0000000000
     13952       113  DOPE      H18R           -0.9058440571      -16.0276198513       -1.7558964850  MEMB      113             0.0000000000
     13953       113  DOPE      H18S           -2.0654718960      -15.1558733741       -0.6881779959  MEMB      113             0.0000000000
     13954       113  DOPE      H18T           -0.3329044318      -15.3607922783       -0.2158514902  MEMB      113             0.0000000000
     13955       113  DOPE      C33            -8.6693672772      -15.7508944655      -10.1872763101  MEMB      113             0.0000000000
     13956       113  DOPE      H3X            -8.7429959426      -16.8586028463      -10.2128031528  MEMB      113             0.0000000000
     13957       113  DOPE      H3Y            -9.6523998408      -15.3762667819      -10.5432357701  MEMB      113             0.0000000000
     13958       113  DOPE      C34            -8.5754971227      -15.3512975118       -8.7027450795  MEMB      113             0.0000000000
     13959       113  DOPE      H4X            -9.1304767767      -14.4184644113       -8.5037989314  MEMB      113             0.0000000000
     13960       113  DOPE      H4Y            -9.1848383186      -16.0653510655       -8.1177202644  MEMB      113             0.0000000000
     13961       113  DOPE      C35            -7.1333031173      -15.2345484803       -8.1955261992  MEMB      113             0.0000000000
     13962       113  DOPE      H5X            -7.0994145021      -14.6131386233       -7.2738724062  MEMB      113             0.0000000000
     13963       113  DOPE      H5Y            -6.4753224829      -14.7031082116       -8.9108395644  MEMB      113             0.0000000000
     13964       113  DOPE      C36            -6.5601414516      -16.6204377370       -7.9176781814  MEMB      113             0.0000000000
     13965       113  DOPE      H6X            -5.5232025611      -16.5145606496       -7.5342454463  MEMB      113             0.0000000000
     13966       113  DOPE      H6Y            -6.4603414798      -17.1704264537       -8.8682139036  MEMB      113             0.0000000000
     13967       113  DOPE      C37            -7.4411438928      -17.4065879812       -6.9256078472  MEMB      113             0.0000000000
     13968       113  DOPE      H7X            -8.4162898848      -17.6848789052       -7.3678584354  MEMB      113             0.0000000000
     13969       113  DOPE      H7Y            -6.9528574137      -18.3875783204       -6.7256851449  MEMB      113             0.0000000000
     13970       113  DOPE      C38            -7.6906977238      -16.6031170127       -5.6393741386  MEMB      113             0.0000000000
     13971       113  DOPE      H8X            -8.4014069973      -17.1305979922       -4.9699843184  MEMB      113             0.0000000000
     13972       113  DOPE      H8Y            -8.1013830449      -15.5904379162       -5.8120144505  MEMB      113             0.0000000000
     13973       113  DOPE      C39            -6.2949947629      -16.5699092309       -5.1176423467  MEMB      113             0.0000000000
     13974       113  DOPE      H9X            -5.6556958740      -15.7062207548       -5.3671391776  MEMB      113             0.0000000000
     13975       113  DOPE      C310           -5.8349489276      -17.5416835871       -4.3463383955  MEMB      113             0.0000000000
     13976       113  DOPE      H10X           -4.8371325639      -17.4707606872       -3.9555225444  MEMB      113             0.0000000000
     13977       113  DOPE      C311           -6.5600985749      -18.7419616840       -3.8555512057  MEMB      113             0.0000000000
     13978       113  DOPE      H11X           -7.3344051181      -19.0756411432       -4.5737803144  MEMB      113             0.0000000000
     13979       113  DOPE      H11Y           -5.8607133289      -19.5836796394       -3.6665042256  MEMB      113             0.0000000000
     13980       113  DOPE      C312           -7.1986679746      -18.2375616512       -2.5459593040  MEMB      113             0.0000000000
     13981       113  DOPE      H12X           -7.4913100200      -19.1058469849       -1.9175147019  MEMB      113             0.0000000000
     13982       113  DOPE      H12Y           -8.1348145609      -17.7046925908       -2.8235003118  MEMB      113             0.0000000000
     13983       113  DOPE      C313           -6.2983395392      -17.2680248882       -1.7340557055  MEMB      113             0.0000000000
     13984       113  DOPE      H13X           -5.3905877954      -17.8087731491       -1.4358312765  MEMB      113             0.0000000000
     13985       113  DOPE      H13Y           -5.9510508011      -16.3816028824       -2.3038319106  MEMB      113             0.0000000000
     13986       113  DOPE      C314           -6.9213814068      -16.6132794229       -0.5207499933  MEMB      113             0.0000000000
     13987       113  DOPE      H14X           -6.0971822027      -16.0822381509       -0.0075296456  MEMB      113             0.0000000000
     13988       113  DOPE      H14Y           -7.2953520299      -17.4188239245        0.1408133480  MEMB      113             0.0000000000
     13989       113  DOPE      C315           -8.0083789402      -15.5956879864       -0.8916133222  MEMB      113             0.0000000000
     13990       113  DOPE      H15X           -8.6746238769      -15.3551700028       -0.0410172362  MEMB      113             0.0000000000
     13991       113  DOPE      H15Y           -8.6511131383      -16.0471409093       -1.6768816020  MEMB      113             0.0000000000
     13992       113  DOPE      C316           -7.4766401302      -14.2731637583       -1.4189839313  MEMB      113             0.0000000000
     13993       113  DOPE      H16X           -6.5254168880      -14.4245854665       -1.9686865824  MEMB      113             0.0000000000
     13994       113  DOPE      H16Y           -7.2834372257      -13.5721669487       -0.5811223974  MEMB      113             0.0000000000
     13995       113  DOPE      C317           -8.5048936567      -13.6362069943       -2.3339632018  MEMB      113             0.0000000000
     13996       113  DOPE      H17X           -8.8977828862      -14.3949269411       -3.0500251265  MEMB      113             0.0000000000
     13997       113  DOPE      H17Y           -9.3438891800      -13.3216397701       -1.6771734634  MEMB      113             0.0000000000
     13998       113  DOPE      C318           -7.9312139071      -12.4541710193       -3.0955605560  MEMB      113             0.0000000000
     13999       113  DOPE      H18X           -8.2476789945      -11.4999882030       -2.6215010356  MEMB      113             0.0000000000
     14000       113  DOPE      H18Y           -6.8287332857      -12.4839672676       -3.0786586025  MEMB      113             0.0000000000
     14001       113  DOPE      H18Z           -8.2527981728      -12.4826234905       -4.1572819748  MEMB      113             0.0000000000
     14002       114  CHL1      C3              4.5607804339       14.1661602776      -17.7844659110  MEMB      114             0.0000000000
     14003       114  CHL1      H3              3.4758556967       14.2789975488      -18.0116339105  MEMB      114             0.0000000000
     14004       114  CHL1      O3              5.2759074827       13.9367770137      -18.9887904757  MEMB      114             0.0000000000
     14005       114  CHL1      H3'             4.8974479419       13.1261667423      -19.3942879378  MEMB      114             0.0000000000
     14006       114  CHL1      C4              5.0961076765       15.4615139283      -17.1432266445  MEMB      114             0.0000000000
     14007       114  CHL1      H4A             6.2034081528       15.3633765079      -17.0996833018  MEMB      114             0.0000000000
     14008       114  CHL1      H4B             4.8925801415       16.3013707017      -17.8448570217  MEMB      114             0.0000000000
     14009       114  CHL1      C5              4.5590423243       15.7393076667      -15.7478440200  MEMB      114             0.0000000000
     14010       114  CHL1      C6              3.9703795892       16.9066803548      -15.4156931407  MEMB      114             0.0000000000
     14011       114  CHL1      H6              3.8789165031       17.6953639748      -16.1725979666  MEMB      114             0.0000000000
     14012       114  CHL1      C7              3.5183774526       17.2608609758      -14.0181450160  MEMB      114             0.0000000000
     14013       114  CHL1      H7A             3.8331857384       18.2873515745      -13.7332414771  MEMB      114             0.0000000000
     14014       114  CHL1      H7B             2.4090642124       17.2124251370      -13.9562024561  MEMB      114             0.0000000000
     14015       114  CHL1      C8              4.0910569736       16.2955158235      -12.9465166246  MEMB      114             0.0000000000
     14016       114  CHL1      H8              5.1796112385       16.4971067414      -12.8425826851  MEMB      114             0.0000000000
     14017       114  CHL1      C14             3.4434856090       16.5868602577      -11.5827247675  MEMB      114             0.0000000000
     14018       114  CHL1      H14             2.3378394380       16.5469564425      -11.7507241457  MEMB      114             0.0000000000
     14019       114  CHL1      C15             3.7175678654       17.9714530077      -10.9292049098  MEMB      114             0.0000000000
     14020       114  CHL1      H15A            4.7566393921       18.3194566387      -11.0866829608  MEMB      114             0.0000000000
     14021       114  CHL1      H15B            3.0040706532       18.7262137969      -11.3200456642  MEMB      114             0.0000000000
     14022       114  CHL1      C16             3.4650307734       17.7695170260       -9.4282402851  MEMB      114             0.0000000000
     14023       114  CHL1      H16A            4.3678125965       17.9129839386       -8.7983420741  MEMB      114             0.0000000000
     14024       114  CHL1      H16B            2.7143188930       18.4998908210       -9.1134815815  MEMB      114             0.0000000000
     14025       114  CHL1      C17             2.9687355178       16.3100944352       -9.3056793138  MEMB      114             0.0000000000
     14026       114  CHL1      H17             1.8957322542       16.3949839462       -9.5808211916  MEMB      114             0.0000000000
     14027       114  CHL1      C13             3.7048509201       15.5621790001      -10.4897419473  MEMB      114             0.0000000000
     14028       114  CHL1      C18             5.2204934669       15.5240949611      -10.1855343735  MEMB      114             0.0000000000
     14029       114  CHL1      H18A            5.7886008177       15.4122586572      -11.1278109613  MEMB      114             0.0000000000
     14030       114  CHL1      H18B            5.6008378303       16.4349904372       -9.6939142712  MEMB      114             0.0000000000
     14031       114  CHL1      H18C            5.4637440798       14.6484070544       -9.5540249057  MEMB      114             0.0000000000
     14032       114  CHL1      C12             3.2800529376       14.1744105521      -11.0720052127  MEMB      114             0.0000000000
     14033       114  CHL1      H12A            3.4351637728       13.3477145699      -10.3525055570  MEMB      114             0.0000000000
     14034       114  CHL1      H12B            2.2226949163       14.1737337383      -11.3932010533  MEMB      114             0.0000000000
     14035       114  CHL1      C11             4.0757193445       13.7892812720      -12.3348786707  MEMB      114             0.0000000000
     14036       114  CHL1      H11A            5.1401398387       13.6490992755      -12.0677562481  MEMB      114             0.0000000000
     14037       114  CHL1      H11B            3.7044410013       12.8060182702      -12.6975563766  MEMB      114             0.0000000000
     14038       114  CHL1      C9              3.9004693850       14.8480128077      -13.4489249627  MEMB      114             0.0000000000
     14039       114  CHL1      H9              2.8173999472       14.7789069740      -13.7243292144  MEMB      114             0.0000000000
     14040       114  CHL1      C10             4.6939633776       14.5586262799      -14.7638515353  MEMB      114             0.0000000000
     14041       114  CHL1      C19             6.2023215126       14.3903655037      -14.4336955680  MEMB      114             0.0000000000
     14042       114  CHL1      H19A            6.5932415219       15.2689332232      -13.8822645122  MEMB      114             0.0000000000
     14043       114  CHL1      H19B            6.3681001028       13.4844593928      -13.8193054009  MEMB      114             0.0000000000
     14044       114  CHL1      H19C            6.8103490656       14.2626895923      -15.3535370833  MEMB      114             0.0000000000
     14045       114  CHL1      C1              4.1680491062       13.2547781707      -15.4505124880  MEMB      114             0.0000000000
     14046       114  CHL1      H1A             4.3953828496       12.3830444173      -14.8004974332  MEMB      114             0.0000000000
     14047       114  CHL1      H1B             3.0622485797       13.3174673215      -15.5488933204  MEMB      114             0.0000000000
     14048       114  CHL1      C2              4.7628701162       12.9722746554      -16.8469532386  MEMB      114             0.0000000000
     14049       114  CHL1      H2A             4.3012022389       12.0630398822      -17.2897468710  MEMB      114             0.0000000000
     14050       114  CHL1      H2B             5.8525830292       12.7680153342      -16.7498357725  MEMB      114             0.0000000000
     14051       114  CHL1      C20             2.9803044167       15.7889388241       -7.8563065621  MEMB      114             0.0000000000
     14052       114  CHL1      H20             3.9325355297       16.0790919571       -7.3563749156  MEMB      114             0.0000000000
     14053       114  CHL1      C21             2.9621943510       14.2870982132       -8.0195507383  MEMB      114             0.0000000000
     14054       114  CHL1      H21A            3.9864273121       13.9000644157       -8.2072020582  MEMB      114             0.0000000000
     14055       114  CHL1      H21B            2.2650810983       13.9827624483       -8.8191372411  MEMB      114             0.0000000000
     14056       114  CHL1      H21C            2.5580134940       13.8187470210       -7.1512497478  MEMB      114             0.0000000000
     14057       114  CHL1      C22             1.8145431145       16.3708746696       -6.9609232710  MEMB      114             0.0000000000
     14058       114  CHL1      H22A            2.1934792118       17.3789981111       -6.8010203197  MEMB      114             0.0000000000
     14059       114  CHL1      H22B            0.8746633790       16.4867079989       -7.5312114947  MEMB      114             0.0000000000
     14060       114  CHL1      C23             1.5787137317       15.9658077718       -5.4658002297  MEMB      114             0.0000000000
     14061       114  CHL1      H23A            2.1873190663       15.0948216755       -5.2119165552  MEMB      114             0.0000000000
     14062       114  CHL1      H23B            2.0198494034       16.7696237054       -4.8382265419  MEMB      114             0.0000000000
     14063       114  CHL1      C24             0.0879298038       15.8534644909       -5.0050170244  MEMB      114             0.0000000000
     14064       114  CHL1      H24A           -0.3887000804       16.8504286929       -5.1077871845  MEMB      114             0.0000000000
     14065       114  CHL1      H24B           -0.4394771878       15.1765739763       -5.7064906495  MEMB      114             0.0000000000
     14066       114  CHL1      C25            -0.1803761946       15.3440184898       -3.5494770563  MEMB      114             0.0000000000
     14067       114  CHL1      H25             0.4434386997       14.4430199812       -3.3792349491  MEMB      114             0.0000000000
     14068       114  CHL1      C26             0.2154413077       16.3381177106       -2.4538415205  MEMB      114             0.0000000000
     14069       114  CHL1      H26A           -0.6663591767       16.9257017922       -2.1164592595  MEMB      114             0.0000000000
     14070       114  CHL1      H26B            0.6033157748       15.7776555222       -1.5787243303  MEMB      114             0.0000000000
     14071       114  CHL1      H26C            1.0089801636       17.0279287731       -2.7924259661  MEMB      114             0.0000000000
     14072       114  CHL1      C27            -1.6361849161       14.8920498082       -3.3044864366  MEMB      114             0.0000000000
     14073       114  CHL1      H27A           -1.6793985362       14.2369470881       -2.4061970829  MEMB      114             0.0000000000
     14074       114  CHL1      H27B           -2.2944275021       15.7680892229       -3.1223923817  MEMB      114             0.0000000000
     14075       114  CHL1      H27C           -2.0309230889       14.3134834513       -4.1628338986  MEMB      114             0.0000000000
     14076       115  DOPE      N             -14.3146909012        4.9221285299      -20.2782484862  MEMB      115             0.0000000000
     14077       115  DOPE      HN1           -13.3990881953        4.7057365050      -20.7218607833  MEMB      115             0.0000000000
     14078       115  DOPE      HN2           -15.0152787508        4.2191928259      -20.5826167648  MEMB      115             0.0000000000
     14079       115  DOPE      HN3           -14.6453605838        5.8663785227      -20.5865296455  MEMB      115             0.0000000000
     14080       115  DOPE      C12           -14.2705493208        5.0913859502      -18.7819758768  MEMB      115             0.0000000000
     14081       115  DOPE      H12A          -13.4807138935        5.8369411140      -18.5487081049  MEMB      115             0.0000000000
     14082       115  DOPE      H12B          -14.0188653861        4.1243122407      -18.3071816265  MEMB      115             0.0000000000
     14083       115  DOPE      C11           -15.6307804736        5.6292549565      -18.3239527906  MEMB      115             0.0000000000
     14084       115  DOPE      H11A          -15.6181310701        5.8707936417      -17.2325747442  MEMB      115             0.0000000000
     14085       115  DOPE      H11B          -16.3870902393        4.8408487965      -18.5140493605  MEMB      115             0.0000000000
     14086       115  DOPE      P             -17.4045838136        7.4304351689      -19.0080076054  MEMB      115             0.0000000000
     14087       115  DOPE      O13           -18.0246091189        7.1559811692      -20.3176973965  MEMB      115             0.0000000000
     14088       115  DOPE      O14           -17.2939023329        8.8356345580      -18.5656618491  MEMB      115             0.0000000000
     14089       115  DOPE      O11           -18.1851801629        6.5832282161      -17.9156047471  MEMB      115             0.0000000000
     14090       115  DOPE      O12           -15.9555832317        6.7813064179      -19.0847970326  MEMB      115             0.0000000000
     14091       115  DOPE      C1            -19.0427256283        7.2463344075      -16.9681856993  MEMB      115             0.0000000000
     14092       115  DOPE      HA            -19.9504607047        6.6263487418      -16.7827140303  MEMB      115             0.0000000000
     14093       115  DOPE      HB            -19.4015734013        8.2391365957      -17.3314955624  MEMB      115             0.0000000000
     14094       115  DOPE      C2            -18.3492336793        7.4939208867      -15.6022389599  MEMB      115             0.0000000000
     14095       115  DOPE      HS            -18.8959456373        8.2983959059      -15.0536394217  MEMB      115             0.0000000000
     14096       115  DOPE      O21           -16.9596955405        7.7740319629      -15.7876639456  MEMB      115             0.0000000000
     14097       115  DOPE      C21           -16.5476150500        8.9485709238      -15.4285166281  MEMB      115             0.0000000000
     14098       115  DOPE      O22           -17.2364967879        9.9399418076      -15.2215449860  MEMB      115             0.0000000000
     14099       115  DOPE      C22           -15.0615804554        8.7959447183      -15.1102624736  MEMB      115             0.0000000000
     14100       115  DOPE      H2R           -14.5515968429        9.7659736418      -15.2321298283  MEMB      115             0.0000000000
     14101       115  DOPE      H2S           -14.6039820621        8.0863275817      -15.8301724709  MEMB      115             0.0000000000
     14102       115  DOPE      C3            -18.4019216604        6.2555916824      -14.6986454863  MEMB      115             0.0000000000
     14103       115  DOPE      HX            -17.8370270776        5.4418849993      -15.2123848383  MEMB      115             0.0000000000
     14104       115  DOPE      HY            -19.4645022171        5.9392536392      -14.5750834049  MEMB      115             0.0000000000
     14105       115  DOPE      O31           -17.7830028085        6.5863894010      -13.4393093927  MEMB      115             0.0000000000
     14106       115  DOPE      C31           -17.9252426211        5.6262726693      -12.5530927462  MEMB      115             0.0000000000
     14107       115  DOPE      O32           -18.5840541776        4.6168883969      -12.6940291371  MEMB      115             0.0000000000
     14108       115  DOPE      C32           -17.1208336410        5.9690032128      -11.3150861326  MEMB      115             0.0000000000
     14109       115  DOPE      H2X           -16.0467618680        5.8350657798      -11.5533947709  MEMB      115             0.0000000000
     14110       115  DOPE      H2Y           -17.3004194800        7.0277491129      -11.0417368761  MEMB      115             0.0000000000
     14111       115  DOPE      C23           -14.8964307963        8.2574501001      -13.6738306986  MEMB      115             0.0000000000
     14112       115  DOPE      H3R           -15.2707108089        7.2100581220      -13.6199403539  MEMB      115             0.0000000000
     14113       115  DOPE      H3S           -15.5210703432        8.8742729849      -12.9841393573  MEMB      115             0.0000000000
     14114       115  DOPE      C24           -13.4585152509        8.2917176380      -13.1535796395  MEMB      115             0.0000000000
     14115       115  DOPE      H4R           -13.0915804709        9.3420201798      -13.2309549668  MEMB      115             0.0000000000
     14116       115  DOPE      H4S           -12.7754591535        7.6707210575      -13.7710260030  MEMB      115             0.0000000000
     14117       115  DOPE      C25           -13.4136132180        7.8555440446      -11.6851230150  MEMB      115             0.0000000000
     14118       115  DOPE      H5R           -14.3179045722        8.2369376024      -11.1671877762  MEMB      115             0.0000000000
     14119       115  DOPE      H5S           -12.5456927077        8.2964142382      -11.1818078268  MEMB      115             0.0000000000
     14120       115  DOPE      C26           -13.1364373367        6.3789772731      -11.4131401765  MEMB      115             0.0000000000
     14121       115  DOPE      H6R           -12.1834027698        6.1122846919      -11.9284334068  MEMB      115             0.0000000000
     14122       115  DOPE      H6S           -13.9426927594        5.7448557592      -11.8304039186  MEMB      115             0.0000000000
     14123       115  DOPE      C27           -12.9665249888        6.1359103008       -9.8985662235  MEMB      115             0.0000000000
     14124       115  DOPE      H7R           -12.1706295726        6.8031530196       -9.4973164346  MEMB      115             0.0000000000
     14125       115  DOPE      H7S           -12.6356489625        5.0849587137       -9.7509236936  MEMB      115             0.0000000000
     14126       115  DOPE      C28           -14.2730992761        6.3790856520       -9.1180961527  MEMB      115             0.0000000000
     14127       115  DOPE      H8R           -15.0184365718        5.7168638785       -9.5955904929  MEMB      115             0.0000000000
     14128       115  DOPE      H8S           -14.6324233491        7.4152888636       -9.2884102276  MEMB      115             0.0000000000
     14129       115  DOPE      C29           -14.2383997098        6.0388784627       -7.6509451976  MEMB      115             0.0000000000
     14130       115  DOPE      H9R           -13.8143248781        5.0481870883       -7.4243137309  MEMB      115             0.0000000000
     14131       115  DOPE      C210          -14.7227229077        6.7891683554       -6.6413993856  MEMB      115             0.0000000000
     14132       115  DOPE      H10R          -14.7257625989        6.3601556369       -5.6257783800  MEMB      115             0.0000000000
     14133       115  DOPE      C211          -15.3973740486        8.1360526483       -6.7710340148  MEMB      115             0.0000000000
     14134       115  DOPE      H11R          -14.9402597696        8.7016308500       -7.6130114705  MEMB      115             0.0000000000
     14135       115  DOPE      H11S          -15.2045844245        8.7427974200       -5.8601136544  MEMB      115             0.0000000000
     14136       115  DOPE      C212          -16.9197610440        8.0748696844       -7.0464149897  MEMB      115             0.0000000000
     14137       115  DOPE      H12R          -17.0918909795        7.4644648724       -7.9622111039  MEMB      115             0.0000000000
     14138       115  DOPE      H12S          -17.3020570442        9.0843012490       -7.2775758315  MEMB      115             0.0000000000
     14139       115  DOPE      C213          -17.7805646896        7.5006093419       -5.9086630160  MEMB      115             0.0000000000
     14140       115  DOPE      H13R          -17.3379770545        6.5330055529       -5.6494420157  MEMB      115             0.0000000000
     14141       115  DOPE      H13S          -18.8200401292        7.3332308052       -6.2692923067  MEMB      115             0.0000000000
     14142       115  DOPE      C214          -17.8189673038        8.3179255379       -4.6176963402  MEMB      115             0.0000000000
     14143       115  DOPE      H14R          -18.2719874592        9.3082641225       -4.8447057004  MEMB      115             0.0000000000
     14144       115  DOPE      H14S          -16.7703789389        8.4796592887       -4.2801999119  MEMB      115             0.0000000000
     14145       115  DOPE      C215          -18.5934405100        7.6460997874       -3.4585001335  MEMB      115             0.0000000000
     14146       115  DOPE      H15R          -18.0586403077        6.7173756206       -3.1700477226  MEMB      115             0.0000000000
     14147       115  DOPE      H15S          -19.6102479277        7.3693573081       -3.8129063824  MEMB      115             0.0000000000
     14148       115  DOPE      C216          -18.7290903614        8.5763829871       -2.2389601574  MEMB      115             0.0000000000
     14149       115  DOPE      H16R          -19.1559931208        9.5318355248       -2.6189709094  MEMB      115             0.0000000000
     14150       115  DOPE      H16S          -17.7240458755        8.7929893902       -1.8106232837  MEMB      115             0.0000000000
     14151       115  DOPE      C217          -19.6563626799        8.1579117076       -1.0962155059  MEMB      115             0.0000000000
     14152       115  DOPE      H17R          -20.6430313740        7.8345520399       -1.4853744684  MEMB      115             0.0000000000
     14153       115  DOPE      H17S          -19.8349014164        9.0904516100       -0.5041197360  MEMB      115             0.0000000000
     14154       115  DOPE      C218          -19.0773875898        7.1327600349       -0.1288042140  MEMB      115             0.0000000000
     14155       115  DOPE      H18R          -19.2298952572        7.4918179729        0.9036235645  MEMB      115             0.0000000000
     14156       115  DOPE      H18S          -17.9828153484        7.0218319533       -0.2691933271  MEMB      115             0.0000000000
     14157       115  DOPE      H18T          -19.5676389233        6.1420827283       -0.2340711290  MEMB      115             0.0000000000
     14158       115  DOPE      C33           -17.5221617794        5.0418076351      -10.1605166486  MEMB      115             0.0000000000
     14159       115  DOPE      H3X           -18.6220809488        4.8844625889      -10.1129708015  MEMB      115             0.0000000000
     14160       115  DOPE      H3Y           -17.2284501303        5.5408846209       -9.2111512580  MEMB      115             0.0000000000
     14161       115  DOPE      C34           -16.8209968968        3.6864196669      -10.2579652999  MEMB      115             0.0000000000
     14162       115  DOPE      H4X           -17.1206217055        3.1688268924      -11.1951621825  MEMB      115             0.0000000000
     14163       115  DOPE      H4Y           -15.7177211124        3.8256396330      -10.3025644749  MEMB      115             0.0000000000
     14164       115  DOPE      C35           -17.1392857765        2.7920520789       -9.0695028803  MEMB      115             0.0000000000
     14165       115  DOPE      H5X           -16.4600179490        1.9219128015       -9.1209325564  MEMB      115             0.0000000000
     14166       115  DOPE      H5Y           -18.1831628389        2.4115922898       -9.1207291634  MEMB      115             0.0000000000
     14167       115  DOPE      C36           -16.8513059147        3.4410027022       -7.7229187235  MEMB      115             0.0000000000
     14168       115  DOPE      H6X           -16.1575837510        4.2937360086       -7.8300654185  MEMB      115             0.0000000000
     14169       115  DOPE      H6Y           -16.2830203225        2.6796720193       -7.1476301332  MEMB      115             0.0000000000
     14170       115  DOPE      C37           -18.1232963850        3.8826977028       -6.9885301756  MEMB      115             0.0000000000
     14171       115  DOPE      H7X           -18.4677660373        4.8562643460       -7.4033886498  MEMB      115             0.0000000000
     14172       115  DOPE      H7Y           -18.9273066587        3.1422393780       -7.1944528491  MEMB      115             0.0000000000
     14173       115  DOPE      C38           -17.8945056210        3.9990972612       -5.4763926279  MEMB      115             0.0000000000
     14174       115  DOPE      H8X           -18.7961819716        4.3936505278       -4.9584613762  MEMB      115             0.0000000000
     14175       115  DOPE      H8Y           -17.0735759017        4.7157203809       -5.3244220337  MEMB      115             0.0000000000
     14176       115  DOPE      C39           -17.4787931586        2.6560410306       -4.9648699555  MEMB      115             0.0000000000
     14177       115  DOPE      H9X           -18.2361639150        1.8654947620       -5.0818789740  MEMB      115             0.0000000000
     14178       115  DOPE      C310          -16.2660825783        2.3451434685       -4.4740897371  MEMB      115             0.0000000000
     14179       115  DOPE      H10X          -16.0632780241        1.2978909344       -4.2021873764  MEMB      115             0.0000000000
     14180       115  DOPE      C311          -15.0833430693        3.2654135892       -4.3184354761  MEMB      115             0.0000000000
     14181       115  DOPE      H11X          -14.3385638531        3.1122519628       -5.1280288739  MEMB      115             0.0000000000
     14182       115  DOPE      H11Y          -15.3836563922        4.3316305380       -4.3413546848  MEMB      115             0.0000000000
     14183       115  DOPE      C312          -14.4601041548        2.9628607442       -2.9479546377  MEMB      115             0.0000000000
     14184       115  DOPE      H12X          -14.1480293835        1.8933882402       -2.9306152840  MEMB      115             0.0000000000
     14185       115  DOPE      H12Y          -15.2317003860        3.0700977320       -2.1619909189  MEMB      115             0.0000000000
     14186       115  DOPE      C313          -13.2519802038        3.8294076963       -2.5538534799  MEMB      115             0.0000000000
     14187       115  DOPE      H13X          -12.9921860324        3.5927339390       -1.4952324465  MEMB      115             0.0000000000
     14188       115  DOPE      H13Y          -12.3891454366        3.5232427190       -3.1812127829  MEMB      115             0.0000000000
     14189       115  DOPE      C314          -13.4018765348        5.3456461234       -2.7060853129  MEMB      115             0.0000000000
     14190       115  DOPE      H14X          -14.3986993267        5.6262697310       -3.1043791044  MEMB      115             0.0000000000
     14191       115  DOPE      H14Y          -12.6364004714        5.6901108480       -3.4425388053  MEMB      115             0.0000000000
     14192       115  DOPE      C315          -13.1769542341        6.1095171969       -1.3992274040  MEMB      115             0.0000000000
     14193       115  DOPE      H15X          -12.1868924546        5.8279671606       -0.9737198362  MEMB      115             0.0000000000
     14194       115  DOPE      H15Y          -13.9342272440        5.8342255564       -0.6385024006  MEMB      115             0.0000000000
     14195       115  DOPE      C316          -13.2243178954        7.6162075433       -1.6629710371  MEMB      115             0.0000000000
     14196       115  DOPE      H16X          -14.2265000339        7.9205477690       -2.0350616539  MEMB      115             0.0000000000
     14197       115  DOPE      H16Y          -12.5038999804        7.8043572238       -2.4838337063  MEMB      115             0.0000000000
     14198       115  DOPE      C317          -12.8586832335        8.4481483659       -0.4330566150  MEMB      115             0.0000000000
     14199       115  DOPE      H17X          -11.9636172811        7.9900719096        0.0421515148  MEMB      115             0.0000000000
     14200       115  DOPE      H17Y          -12.6029113097        9.4968533889       -0.6915972680  MEMB      115             0.0000000000
     14201       115  DOPE      C318          -13.9796461184        8.5278895153        0.5621052846  MEMB      115             0.0000000000
     14202       115  DOPE      H18X          -14.3646981714        7.4971165237        0.6995129381  MEMB      115             0.0000000000
     14203       115  DOPE      H18Y          -13.6205548190        8.9339729404        1.5343076500  MEMB      115             0.0000000000
     14204       115  DOPE      H18Z          -14.8089208793        9.1627518499        0.1859447325  MEMB      115             0.0000000000
     14205       116  CHL1      C3            -12.6497814286       13.2319765088      -17.6433145892  MEMB      116             0.0000000000
     14206       116  CHL1      H3            -12.5029687145       12.1400829948      -17.8203694812  MEMB      116             0.0000000000
     14207       116  CHL1      O3            -12.6030507947       13.9346379952      -18.8657385589  MEMB      116             0.0000000000
     14208       116  CHL1      H3'           -12.7328905473       13.2325972295      -19.5266800988  MEMB      116             0.0000000000
     14209       116  CHL1      C4            -14.0255322573       13.4564507228      -16.9774858398  MEMB      116             0.0000000000
     14210       116  CHL1      H4A           -14.3508369591       14.5041404566      -17.1508944300  MEMB      116             0.0000000000
     14211       116  CHL1      H4B           -14.7563206311       12.8237784318      -17.5314243655  MEMB      116             0.0000000000
     14212       116  CHL1      C5            -14.0384846948       13.1577146731      -15.4891018074  MEMB      116             0.0000000000
     14213       116  CHL1      C6            -14.9179331610       12.3337449007      -14.9226980722  MEMB      116             0.0000000000
     14214       116  CHL1      H6            -15.7085194737       11.8740548377      -15.5290302402  MEMB      116             0.0000000000
     14215       116  CHL1      C7            -14.9268586588       12.0281699890      -13.4555516595  MEMB      116             0.0000000000
     14216       116  CHL1      H7A           -15.9715880020       11.9512226915      -13.0953301180  MEMB      116             0.0000000000
     14217       116  CHL1      H7B           -14.4600582655       11.0377114102      -13.2918433682  MEMB      116             0.0000000000
     14218       116  CHL1      C8            -14.1616397103       13.0544058272      -12.5771378220  MEMB      116             0.0000000000
     14219       116  CHL1      H8            -14.8003119194       13.9583385904      -12.4712435796  MEMB      116             0.0000000000
     14220       116  CHL1      C14           -13.8322877812       12.4647551195      -11.2198282509  MEMB      116             0.0000000000
     14221       116  CHL1      H14           -13.0012877709       11.7372260454      -11.4024857999  MEMB      116             0.0000000000
     14222       116  CHL1      C15           -14.9093756610       11.6055625640      -10.5638619618  MEMB      116             0.0000000000
     14223       116  CHL1      H15A          -15.8805099928       12.1006682713      -10.7083939069  MEMB      116             0.0000000000
     14224       116  CHL1      H15B          -14.9394897724       10.5837690545      -10.9919444911  MEMB      116             0.0000000000
     14225       116  CHL1      C16           -14.5404278850       11.6338520555       -9.0875454628  MEMB      116             0.0000000000
     14226       116  CHL1      H16A          -15.2722121857       12.2859297574       -8.6028631336  MEMB      116             0.0000000000
     14227       116  CHL1      H16B          -14.5391882499       10.6317170571       -8.6240734621  MEMB      116             0.0000000000
     14228       116  CHL1      C17           -13.2008220479       12.3937959709       -8.9767889324  MEMB      116             0.0000000000
     14229       116  CHL1      H17           -12.4795856727       11.6078632735       -9.2550827954  MEMB      116             0.0000000000
     14230       116  CHL1      C13           -13.2640865944       13.4113931785      -10.1595679104  MEMB      116             0.0000000000
     14231       116  CHL1      C18           -14.2463189860       14.5712574891       -9.8227719964  MEMB      116             0.0000000000
     14232       116  CHL1      H18A          -14.3942956307       15.2392262681      -10.6956934533  MEMB      116             0.0000000000
     14233       116  CHL1      H18B          -15.2421540476       14.2016828123       -9.5162464285  MEMB      116             0.0000000000
     14234       116  CHL1      H18C          -13.8446556383       15.2048731458       -9.0049315367  MEMB      116             0.0000000000
     14235       116  CHL1      C12           -11.9508592564       13.9696408793      -10.7388638308  MEMB      116             0.0000000000
     14236       116  CHL1      H12A          -11.5761162679       14.7989523498      -10.1077351171  MEMB      116             0.0000000000
     14237       116  CHL1      H12B          -11.1958822059       13.1681446742      -10.7070198609  MEMB      116             0.0000000000
     14238       116  CHL1      C11           -12.1085335919       14.4613398196      -12.2081369427  MEMB      116             0.0000000000
     14239       116  CHL1      H11A          -12.7050551410       15.3979341361      -12.1619318603  MEMB      116             0.0000000000
     14240       116  CHL1      H11B          -11.1133698166       14.7314732008      -12.6085070398  MEMB      116             0.0000000000
     14241       116  CHL1      C9            -12.8306168614       13.4545332659      -13.1720402941  MEMB      116             0.0000000000
     14242       116  CHL1      H9            -12.2127031819       12.5278086437      -13.1739448841  MEMB      116             0.0000000000
     14243       116  CHL1      C10           -12.9275741872       13.8264967787      -14.6750393727  MEMB      116             0.0000000000
     14244       116  CHL1      C19           -13.2275563204       15.3307965307      -14.7900540235  MEMB      116             0.0000000000
     14245       116  CHL1      H19A          -13.1468095549       15.6914722127      -15.8364367279  MEMB      116             0.0000000000
     14246       116  CHL1      H19B          -14.2530370883       15.5666065359      -14.4322795489  MEMB      116             0.0000000000
     14247       116  CHL1      H19C          -12.5149490588       15.9329934799      -14.2025927558  MEMB      116             0.0000000000
     14248       116  CHL1      C1            -11.6137875856       13.3625011787      -15.3534299856  MEMB      116             0.0000000000
     14249       116  CHL1      H1A           -10.7645870650       13.7573305800      -14.7846298996  MEMB      116             0.0000000000
     14250       116  CHL1      H1B           -11.5460064582       12.2501759468      -15.2888770329  MEMB      116             0.0000000000
     14251       116  CHL1      C2            -11.4865528359       13.7608736593      -16.8228986051  MEMB      116             0.0000000000
     14252       116  CHL1      H2A           -10.5342324022       13.3773213411      -17.2539068757  MEMB      116             0.0000000000
     14253       116  CHL1      H2B           -11.4770025622       14.8702097838      -16.8986440584  MEMB      116             0.0000000000
     14254       116  CHL1      C20           -12.8222843432       12.8505875935       -7.5550314299  MEMB      116             0.0000000000
     14255       116  CHL1      H20           -13.2819975079       13.8450625080       -7.3693946502  MEMB      116             0.0000000000
     14256       116  CHL1      C21           -11.2782841662       12.9544608236       -7.4935487923  MEMB      116             0.0000000000
     14257       116  CHL1      H21A          -10.8099474284       11.9723516582       -7.6460015458  MEMB      116             0.0000000000
     14258       116  CHL1      H21B          -10.9290040915       13.2792988033       -6.4949958875  MEMB      116             0.0000000000
     14259       116  CHL1      H21C          -10.8706717562       13.6439273540       -8.2557116397  MEMB      116             0.0000000000
     14260       116  CHL1      C22           -13.2865599490       11.9125116662       -6.3903532836  MEMB      116             0.0000000000
     14261       116  CHL1      H22A          -14.3146390329       11.5342200259       -6.5534277837  MEMB      116             0.0000000000
     14262       116  CHL1      H22B          -12.6089433915       11.0309849794       -6.3773172873  MEMB      116             0.0000000000
     14263       116  CHL1      C23           -13.2814495331       12.5997164650       -5.0003225611  MEMB      116             0.0000000000
     14264       116  CHL1      H23A          -12.4229531787       13.3030052806       -4.9579829025  MEMB      116             0.0000000000
     14265       116  CHL1      H23B          -14.2051185971       13.2084191653       -4.9029566310  MEMB      116             0.0000000000
     14266       116  CHL1      C24           -13.1825892117       11.6430309772       -3.7903496825  MEMB      116             0.0000000000
     14267       116  CHL1      H24A          -14.0305420617       10.9339325758       -3.7662877160  MEMB      116             0.0000000000
     14268       116  CHL1      H24B          -12.2667828753       11.0267924463       -3.9337216852  MEMB      116             0.0000000000
     14269       116  CHL1      C25           -13.0474888018       12.3409460962       -2.4061128593  MEMB      116             0.0000000000
     14270       116  CHL1      H25           -12.9439652629       11.5399740103       -1.6325875343  MEMB      116             0.0000000000
     14271       116  CHL1      C26           -11.7784237517       13.1869881558       -2.3577394741  MEMB      116             0.0000000000
     14272       116  CHL1      H26A          -11.9780207352       14.1593782036       -2.8473829634  MEMB      116             0.0000000000
     14273       116  CHL1      H26B          -11.4637812019       13.3752401313       -1.3090422716  MEMB      116             0.0000000000
     14274       116  CHL1      H26C          -10.9496763176       12.6763409784       -2.8931027471  MEMB      116             0.0000000000
     14275       116  CHL1      C27           -14.2234475424       13.2451036606       -2.0009526130  MEMB      116             0.0000000000
     14276       116  CHL1      H27A          -14.5521198241       13.8781586842       -2.8511045441  MEMB      116             0.0000000000
     14277       116  CHL1      H27B          -15.0829093180       12.6627494591       -1.6282529538  MEMB      116             0.0000000000
     14278       116  CHL1      H27C          -13.9147311737       13.9168968459       -1.1725309729  MEMB      116             0.0000000000
     14279       117  DOPE      N              19.4134258118       -9.8555166198      -18.3055896644  MEMB      117             0.0000000000
     14280       117  DOPE      HN1            19.5071598115       -9.3272442985      -17.4169556516  MEMB      117             0.0000000000
     14281       117  DOPE      HN2            19.3862096518      -10.8815387721      -18.1115320056  MEMB      117             0.0000000000
     14282       117  DOPE      HN3            20.2310666080       -9.6155598805      -18.9095975940  MEMB      117             0.0000000000
     14283       117  DOPE      C12            18.1432364171       -9.4017916895      -18.9855316513  MEMB      117             0.0000000000
     14284       117  DOPE      H12A           17.4286068088      -10.2512443123      -18.9880111703  MEMB      117             0.0000000000
     14285       117  DOPE      H12B           18.3915292972       -9.1341311362      -20.0362690853  MEMB      117             0.0000000000
     14286       117  DOPE      C11            17.5168625150       -8.1933738235      -18.2744987913  MEMB      117             0.0000000000
     14287       117  DOPE      H11A           18.2957972977       -7.4276614151      -18.0355545453  MEMB      117             0.0000000000
     14288       117  DOPE      H11B           17.0500939760       -8.5107221142      -17.3146179410  MEMB      117             0.0000000000
     14289       117  DOPE      P              16.7122100793       -6.3132926156      -19.9143736944  MEMB      117             0.0000000000
     14290       117  DOPE      O13            15.5234533622       -5.9907620906      -20.7376606365  MEMB      117             0.0000000000
     14291       117  DOPE      O14            18.0150023377       -6.4392038355      -20.6126057717  MEMB      117             0.0000000000
     14292       117  DOPE      O11            16.8194405075       -5.2814504598      -18.7236881974  MEMB      117             0.0000000000
     14293       117  DOPE      O12            16.4940226394       -7.6713205955      -19.1141766753  MEMB      117             0.0000000000
     14294       117  DOPE      C1             17.7742220008       -4.2282963282      -18.8497752864  MEMB      117             0.0000000000
     14295       117  DOPE      HA             17.3718057797       -3.4337386734      -19.5193496557  MEMB      117             0.0000000000
     14296       117  DOPE      HB             18.7358727085       -4.5736858935      -19.2966103613  MEMB      117             0.0000000000
     14297       117  DOPE      C2             18.1191313377       -3.5840127747      -17.4788694418  MEMB      117             0.0000000000
     14298       117  DOPE      HS             18.9255324924       -2.8490719172      -17.6828431814  MEMB      117             0.0000000000
     14299       117  DOPE      O21            18.5459422141       -4.5331938844      -16.4753360727  MEMB      117             0.0000000000
     14300       117  DOPE      C21            19.7317812809       -5.1068270498      -16.6811245573  MEMB      117             0.0000000000
     14301       117  DOPE      O22            20.4733500678       -4.9044880434      -17.6221864855  MEMB      117             0.0000000000
     14302       117  DOPE      C22            19.9360089788       -6.1333251175      -15.5171351102  MEMB      117             0.0000000000
     14303       117  DOPE      H2R            19.0059049859       -6.7353985354      -15.5453364597  MEMB      117             0.0000000000
     14304       117  DOPE      H2S            19.8908887382       -5.5148945205      -14.6114946713  MEMB      117             0.0000000000
     14305       117  DOPE      C3             16.8944870862       -2.7690795519      -16.9354989447  MEMB      117             0.0000000000
     14306       117  DOPE      HX             16.2429131559       -2.5237041666      -17.7961639167  MEMB      117             0.0000000000
     14307       117  DOPE      HY             17.2620710769       -1.8220386637      -16.5063994260  MEMB      117             0.0000000000
     14308       117  DOPE      O31            16.0548165308       -3.4273986574      -15.9970391440  MEMB      117             0.0000000000
     14309       117  DOPE      C31            16.3588728997       -3.2831076366      -14.7253597783  MEMB      117             0.0000000000
     14310       117  DOPE      O32            17.2201280743       -2.5749401363      -14.2324277995  MEMB      117             0.0000000000
     14311       117  DOPE      C32            15.3945396966       -4.1754883858      -13.9853260511  MEMB      117             0.0000000000
     14312       117  DOPE      H2X            14.5302850075       -3.5899919082      -13.6172567357  MEMB      117             0.0000000000
     14313       117  DOPE      H2Y            15.0375903519       -4.8895055850      -14.7519035558  MEMB      117             0.0000000000
     14314       117  DOPE      C23            21.1088048063       -7.1968565580      -15.4326612243  MEMB      117             0.0000000000
     14315       117  DOPE      H3R            21.5407111620       -7.3335569326      -16.4553105187  MEMB      117             0.0000000000
     14316       117  DOPE      H3S            20.6609479868       -8.1506249085      -15.0882317646  MEMB      117             0.0000000000
     14317       117  DOPE      C24            22.3078795771       -7.0043600919      -14.4388457607  MEMB      117             0.0000000000
     14318       117  DOPE      H4R            22.5946920378       -5.9911221724      -14.5629837096  MEMB      117             0.0000000000
     14319       117  DOPE      H4S            23.2106124595       -7.3832082875      -14.9642877305  MEMB      117             0.0000000000
     14320       117  DOPE      C25            22.4466419892       -7.7395288169      -13.0306903160  MEMB      117             0.0000000000
     14321       117  DOPE      H5R            23.3585626692       -8.3079652189      -13.3069099652  MEMB      117             0.0000000000
     14322       117  DOPE      H5S            21.7217206518       -8.5592246658      -12.8755881964  MEMB      117             0.0000000000
     14323       117  DOPE      C26            23.0127171258       -7.2621888209      -11.5798579371  MEMB      117             0.0000000000
     14324       117  DOPE      H6R            24.0251026041       -7.0001195863      -11.7906826952  MEMB      117             0.0000000000
     14325       117  DOPE      H6S            23.1045643859       -8.2071381189      -11.0272329388  MEMB      117             0.0000000000
     14326       117  DOPE      C27            22.7855621539       -6.0817834104      -10.5155239515  MEMB      117             0.0000000000
     14327       117  DOPE      H7R            22.5710370054       -5.0469227167      -10.7744272991  MEMB      117             0.0000000000
     14328       117  DOPE      H7S            23.8152289083       -5.9498011825      -10.1239230435  MEMB      117             0.0000000000
     14329       117  DOPE      C28            21.9798147160       -6.3949247150       -9.2541081701  MEMB      117             0.0000000000
     14330       117  DOPE      H8R            22.6601262996       -6.7898650437       -8.4807539694  MEMB      117             0.0000000000
     14331       117  DOPE      H8S            21.4376985103       -7.1482124745       -9.7779202446  MEMB      117             0.0000000000
     14332       117  DOPE      C29            20.8080354734       -5.6499336655       -8.6943635448  MEMB      117             0.0000000000
     14333       117  DOPE      H9R            20.4785744657       -4.8355477669       -9.3328095457  MEMB      117             0.0000000000
     14334       117  DOPE      C210           19.9744217839       -5.9484780921       -7.6787741611  MEMB      117             0.0000000000
     14335       117  DOPE      H10R           19.1012858944       -5.2840283614       -7.5866664215  MEMB      117             0.0000000000
     14336       117  DOPE      C211           19.8907419955       -7.1156528050       -6.7166455647  MEMB      117             0.0000000000
     14337       117  DOPE      H11R           18.9955311439       -7.7111870852       -7.0349710579  MEMB      117             0.0000000000
     14338       117  DOPE      H11S           19.6124217782       -6.7006839243       -5.7281619210  MEMB      117             0.0000000000
     14339       117  DOPE      C212           21.0222066617       -8.1810565284       -6.5595006749  MEMB      117             0.0000000000
     14340       117  DOPE      H12R           21.7466885886       -8.1020500067       -7.3879573891  MEMB      117             0.0000000000
     14341       117  DOPE      H12S           20.5286222584       -9.1697324472       -6.6989068599  MEMB      117             0.0000000000
     14342       117  DOPE      C213           21.8686857828       -8.2934718483       -5.2744947996  MEMB      117             0.0000000000
     14343       117  DOPE      H13R           22.6193119530       -7.4833720679       -5.2371255050  MEMB      117             0.0000000000
     14344       117  DOPE      H13S           22.4975575396       -9.2051617273       -5.3601104460  MEMB      117             0.0000000000
     14345       117  DOPE      C214           21.0832367407       -8.3827693461       -3.9627175478  MEMB      117             0.0000000000
     14346       117  DOPE      H14R           20.7547323051       -9.4318503583       -3.7858367980  MEMB      117             0.0000000000
     14347       117  DOPE      H14S           20.1713483358       -7.7559773847       -4.0436359563  MEMB      117             0.0000000000
     14348       117  DOPE      C215           21.8785434458       -7.8925574834       -2.7443546109  MEMB      117             0.0000000000
     14349       117  DOPE      H15R           22.3682729637       -6.9184372292       -2.9736826492  MEMB      117             0.0000000000
     14350       117  DOPE      H15S           22.6933086609       -8.6123019699       -2.5164436331  MEMB      117             0.0000000000
     14351       117  DOPE      C216           20.9604075696       -7.6798448893       -1.5353911270  MEMB      117             0.0000000000
     14352       117  DOPE      H16R           19.9283115299       -8.0272265845       -1.7577653624  MEMB      117             0.0000000000
     14353       117  DOPE      H16S           20.8777763155       -6.5893930910       -1.3482481428  MEMB      117             0.0000000000
     14354       117  DOPE      C217           21.4569148719       -8.2746776880       -0.2210482928  MEMB      117             0.0000000000
     14355       117  DOPE      H17R           22.5408465391       -8.5166540955       -0.2946025751  MEMB      117             0.0000000000
     14356       117  DOPE      H17S           20.9075116058       -9.2225439527       -0.0213567400  MEMB      117             0.0000000000
     14357       117  DOPE      C218           21.2488940385       -7.2622248664        0.9054285828  MEMB      117             0.0000000000
     14358       117  DOPE      H18R           20.1622775266       -7.0587572255        1.0412671114  MEMB      117             0.0000000000
     14359       117  DOPE      H18S           21.7343096908       -6.2983601417        0.6542189341  MEMB      117             0.0000000000
     14360       117  DOPE      H18T           21.6761142309       -7.6162959078        1.8635646976  MEMB      117             0.0000000000
     14361       117  DOPE      C33            15.9476761999       -5.1283015669      -12.9236729056  MEMB      117             0.0000000000
     14362       117  DOPE      H3X            16.0518467332       -4.5615112118      -11.9748852603  MEMB      117             0.0000000000
     14363       117  DOPE      H3Y            16.9360734237       -5.5462034189      -13.2176240839  MEMB      117             0.0000000000
     14364       117  DOPE      C34            14.9099370360       -6.2624413408      -12.8359381853  MEMB      117             0.0000000000
     14365       117  DOPE      H4X            13.9195437216       -5.7633409918      -12.7568684256  MEMB      117             0.0000000000
     14366       117  DOPE      H4Y            14.8969073107       -6.8442901628      -13.7872905603  MEMB      117             0.0000000000
     14367       117  DOPE      C35            15.0371664461       -7.2179654745      -11.6596573846  MEMB      117             0.0000000000
     14368       117  DOPE      H5X            15.7936002656       -7.9996630728      -11.8894934274  MEMB      117             0.0000000000
     14369       117  DOPE      H5Y            14.0570965072       -7.7369835060      -11.5336633559  MEMB      117             0.0000000000
     14370       117  DOPE      C36            15.4166689626       -6.5007610820      -10.3624136834  MEMB      117             0.0000000000
     14371       117  DOPE      H6X            14.6388242286       -5.7495891919      -10.0985815824  MEMB      117             0.0000000000
     14372       117  DOPE      H6Y            16.3857437394       -5.9711065480      -10.4969772095  MEMB      117             0.0000000000
     14373       117  DOPE      C37            15.6130911177       -7.4940252808       -9.2266813281  MEMB      117             0.0000000000
     14374       117  DOPE      H7X            16.1946781639       -8.3487983273       -9.6454651034  MEMB      117             0.0000000000
     14375       117  DOPE      H7Y            16.2383693310       -7.0314338359       -8.4314537494  MEMB      117             0.0000000000
     14376       117  DOPE      C38            14.2713239395       -7.9405516132       -8.6339398048  MEMB      117             0.0000000000
     14377       117  DOPE      H8X            13.4939338904       -7.9690176065       -9.4278657429  MEMB      117             0.0000000000
     14378       117  DOPE      H8Y            13.9378687263       -7.1677349625       -7.9029069987  MEMB      117             0.0000000000
     14379       117  DOPE      C39            14.4311693812       -9.3122191506       -8.0397843869  MEMB      117             0.0000000000
     14380       117  DOPE      H9X            14.5293137559      -10.1228884111       -8.7795057348  MEMB      117             0.0000000000
     14381       117  DOPE      C310           14.5100244635       -9.5988331813       -6.7324225554  MEMB      117             0.0000000000
     14382       117  DOPE      H10X           14.6661231352      -10.6450436311       -6.4267413334  MEMB      117             0.0000000000
     14383       117  DOPE      C311           14.4490189090       -8.5900350416       -5.6143259020  MEMB      117             0.0000000000
     14384       117  DOPE      H11X           13.7036602285       -7.7908100755       -5.8319842208  MEMB      117             0.0000000000
     14385       117  DOPE      H11Y           14.1049260929       -9.0922456012       -4.6843395462  MEMB      117             0.0000000000
     14386       117  DOPE      C312           15.8047114535       -7.9158192851       -5.3355171667  MEMB      117             0.0000000000
     14387       117  DOPE      H12X           16.1564005941       -7.3672353644       -6.2380957900  MEMB      117             0.0000000000
     14388       117  DOPE      H12Y           16.5661019517       -8.6943288856       -5.1036172077  MEMB      117             0.0000000000
     14389       117  DOPE      C313           15.7239916835       -6.9361258731       -4.1578029728  MEMB      117             0.0000000000
     14390       117  DOPE      H13X           15.1359945555       -6.0437207255       -4.4732079798  MEMB      117             0.0000000000
     14391       117  DOPE      H13Y           15.1761676123       -7.4200084188       -3.3192395512  MEMB      117             0.0000000000
     14392       117  DOPE      C314           17.1065084099       -6.4882826058       -3.6667581363  MEMB      117             0.0000000000
     14393       117  DOPE      H14X           17.6639098288       -6.0738467943       -4.5399051613  MEMB      117             0.0000000000
     14394       117  DOPE      H14Y           17.6805194880       -7.3611333045       -3.2848736774  MEMB      117             0.0000000000
     14395       117  DOPE      C315           17.0384419904       -5.3941725755       -2.5930607565  MEMB      117             0.0000000000
     14396       117  DOPE      H15X           16.3590044464       -4.5897413529       -2.9517309223  MEMB      117             0.0000000000
     14397       117  DOPE      H15Y           18.0576344784       -4.9626674944       -2.4633614313  MEMB      117             0.0000000000
     14398       117  DOPE      C316           16.5345866274       -5.8418749676       -1.2166145452  MEMB      117             0.0000000000
     14399       117  DOPE      H16X           17.1914300859       -6.6525199298       -0.8355289009  MEMB      117             0.0000000000
     14400       117  DOPE      H16Y           15.5033062627       -6.2485164555       -1.3169970943  MEMB      117             0.0000000000
     14401       117  DOPE      C317           16.5190280621       -4.6565842265       -0.2369053787  MEMB      117             0.0000000000
     14402       117  DOPE      H17X           17.5661565238       -4.3298770199       -0.0461691219  MEMB      117             0.0000000000
     14403       117  DOPE      H17Y           15.9972817126       -3.8132984857       -0.7449912095  MEMB      117             0.0000000000
     14404       117  DOPE      C318           15.8159269379       -4.9084280398        1.0981852150  MEMB      117             0.0000000000
     14405       117  DOPE      H18X           14.8203553021       -5.3731793870        0.9289972885  MEMB      117             0.0000000000
     14406       117  DOPE      H18Y           16.4121810863       -5.5749270627        1.7529914414  MEMB      117             0.0000000000
     14407       117  DOPE      H18Z           15.6643589426       -3.9501800244        1.6373693022  MEMB      117             0.0000000000
     14408       118  DOPC      N             -17.5735766750       -8.1700894513      -21.0128073054  MEMB      118             0.0000000000
     14409       118  DOPC      C12           -16.4490265599       -8.6208683213      -20.0821808116  MEMB      118             0.0000000000
     14410       118  DOPC      H12A          -15.4824567258       -8.3480532323      -20.5039460916  MEMB      118             0.0000000000
     14411       118  DOPC      H12B          -16.4344582758       -9.7037785743      -20.0504129468  MEMB      118             0.0000000000
     14412       118  DOPC      C13           -17.2762444032       -8.6502306137      -22.3955320879  MEMB      118             0.0000000000
     14413       118  DOPC      H13A          -18.0443337179       -8.3240950497      -23.0871733328  MEMB      118             0.0000000000
     14414       118  DOPC      H13B          -16.3114144066       -8.2816755027      -22.7368753562  MEMB      118             0.0000000000
     14415       118  DOPC      H13C          -17.2121023830       -9.7314142049      -22.4429612745  MEMB      118             0.0000000000
     14416       118  DOPC      C14           -17.6090814701       -6.6711243833      -21.0381535270  MEMB      118             0.0000000000
     14417       118  DOPC      H14A          -17.6930787351       -6.3166512602      -20.0067968500  MEMB      118             0.0000000000
     14418       118  DOPC      H14B          -16.6656219689       -6.2697843453      -21.3824707891  MEMB      118             0.0000000000
     14419       118  DOPC      H14C          -18.4100806999       -6.2830082132      -21.6440945927  MEMB      118             0.0000000000
     14420       118  DOPC      C15           -18.8957740751       -8.6874339169      -20.5196590589  MEMB      118             0.0000000000
     14421       118  DOPC      H15A          -19.0070374641       -8.4805570734      -19.4568792765  MEMB      118             0.0000000000
     14422       118  DOPC      H15B          -18.9511737779       -9.7624571829      -20.6541334200  MEMB      118             0.0000000000
     14423       118  DOPC      H15C          -19.7540954676       -8.2541296385      -21.0297918879  MEMB      118             0.0000000000
     14424       118  DOPC      C11           -16.4613833394       -8.0685781405      -18.6329292459  MEMB      118             0.0000000000
     14425       118  DOPC      H11A          -17.4201693274       -8.3685819682      -18.1466060551  MEMB      118             0.0000000000
     14426       118  DOPC      H11B          -15.6312787631       -8.5545108604      -18.0673621621  MEMB      118             0.0000000000
     14427       118  DOPC      P             -16.3820260848       -5.8486528917      -17.2522857398  MEMB      118             0.0000000000
     14428       118  DOPC      O13           -16.5162254171       -4.3932513153      -17.5674830129  MEMB      118             0.0000000000
     14429       118  DOPC      O14           -15.3093000350       -6.2974764956      -16.3400887476  MEMB      118             0.0000000000
     14430       118  DOPC      O12           -16.2744364657       -6.6503549770      -18.6229200512  MEMB      118             0.0000000000
     14431       118  DOPC      O11           -17.8134235830       -6.3372973075      -16.7185216804  MEMB      118             0.0000000000
     14432       118  DOPC      C1            -19.0072610956       -5.9587953536      -17.4315229894  MEMB      118             0.0000000000
     14433       118  DOPC      HA            -19.3581216825       -6.8195753071      -18.0368313520  MEMB      118             0.0000000000
     14434       118  DOPC      HB            -18.8153308358       -5.1114485170      -18.1315242110  MEMB      118             0.0000000000
     14435       118  DOPC      C2            -20.2093712111       -5.4859024742      -16.5358209894  MEMB      118             0.0000000000
     14436       118  DOPC      HS            -20.9736975994       -5.0640155009      -17.2249984348  MEMB      118             0.0000000000
     14437       118  DOPC      O21           -19.7477369299       -4.4903609578      -15.6235306292  MEMB      118             0.0000000000
     14438       118  DOPC      C21           -20.5546769641       -3.5401320525      -15.1880553628  MEMB      118             0.0000000000
     14439       118  DOPC      O22           -21.5674080237       -3.1544020961      -15.7434500854  MEMB      118             0.0000000000
     14440       118  DOPC      C22           -19.7930341795       -2.7840334193      -14.0834377480  MEMB      118             0.0000000000
     14441       118  DOPC      H2R           -20.1592276852       -3.1993913824      -13.1187358564  MEMB      118             0.0000000000
     14442       118  DOPC      H2S           -20.0831825941       -1.7177237464      -14.1166086497  MEMB      118             0.0000000000
     14443       118  DOPC      C3            -20.9020332199       -6.6396196574      -15.7466947414  MEMB      118             0.0000000000
     14444       118  DOPC      HX            -21.2654068527       -7.3728802820      -16.5009458191  MEMB      118             0.0000000000
     14445       118  DOPC      HY            -21.8178690167       -6.2431463208      -15.2442303546  MEMB      118             0.0000000000
     14446       118  DOPC      O31           -20.0292143334       -7.3318405929      -14.8239505191  MEMB      118             0.0000000000
     14447       118  DOPC      C31           -19.9636352765       -6.7834176931      -13.6160921170  MEMB      118             0.0000000000
     14448       118  DOPC      O32           -20.4900845010       -5.7393777051      -13.2783357227  MEMB      118             0.0000000000
     14449       118  DOPC      C32           -19.2784341980       -7.7503002049      -12.6631050206  MEMB      118             0.0000000000
     14450       118  DOPC      H2X           -19.2963739361       -8.7687289557      -13.0984082526  MEMB      118             0.0000000000
     14451       118  DOPC      H2Y           -18.2237748842       -7.4262972608      -12.5407447581  MEMB      118             0.0000000000
     14452       118  DOPC      C23           -18.2379025027       -2.9218372061      -14.0926240650  MEMB      118             0.0000000000
     14453       118  DOPC      H3R           -17.7588361023       -1.9715851508      -14.3995794563  MEMB      118             0.0000000000
     14454       118  DOPC      H3S           -17.8428617820       -3.7136514788      -14.7685683260  MEMB      118             0.0000000000
     14455       118  DOPC      C24           -17.7398037741       -3.3066814626      -12.6997189345  MEMB      118             0.0000000000
     14456       118  DOPC      H4R           -18.1254279427       -4.3209436562      -12.4465667898  MEMB      118             0.0000000000
     14457       118  DOPC      H4S           -18.1717239681       -2.5932652084      -11.9668577278  MEMB      118             0.0000000000
     14458       118  DOPC      C25           -16.2131749424       -3.3247904975      -12.5788379667  MEMB      118             0.0000000000
     14459       118  DOPC      H5R           -15.8481039073       -2.2787696098      -12.6490990013  MEMB      118             0.0000000000
     14460       118  DOPC      H5S           -15.7841090378       -3.8937602196      -13.4376356052  MEMB      118             0.0000000000
     14461       118  DOPC      C26           -15.7429224728       -3.9926328974      -11.2749503945  MEMB      118             0.0000000000
     14462       118  DOPC      H6R           -14.6342216709       -3.9924209293      -11.2071077992  MEMB      118             0.0000000000
     14463       118  DOPC      H6S           -16.0644685891       -5.0552881325      -11.3576279988  MEMB      118             0.0000000000
     14464       118  DOPC      C27           -16.3499656404       -3.3627155872      -10.0073517298  MEMB      118             0.0000000000
     14465       118  DOPC      H7R           -17.4401696295       -3.1893347385      -10.1432412363  MEMB      118             0.0000000000
     14466       118  DOPC      H7S           -15.8889364050       -2.3820122471       -9.8062573789  MEMB      118             0.0000000000
     14467       118  DOPC      C28           -16.2114078825       -4.1749134778       -8.7343782610  MEMB      118             0.0000000000
     14468       118  DOPC      H8R           -16.6467963441       -3.6315691761       -7.8867409368  MEMB      118             0.0000000000
     14469       118  DOPC      H8S           -15.1442392674       -4.2949888011       -8.5006443862  MEMB      118             0.0000000000
     14470       118  DOPC      C29           -16.9714036600       -5.4343775797       -8.9706639041  MEMB      118             0.0000000000
     14471       118  DOPC      H9R           -16.4215600629       -6.2796271531       -9.4036191466  MEMB      118             0.0000000000
     14472       118  DOPC      C210          -18.2506081030       -5.6206591179       -8.6851280095  MEMB      118             0.0000000000
     14473       118  DOPC      H10R          -18.6506296071       -6.5936591454       -8.9101158712  MEMB      118             0.0000000000
     14474       118  DOPC      C211          -19.2987223379       -4.7457770019       -8.0752044560  MEMB      118             0.0000000000
     14475       118  DOPC      H11R          -20.2462671416       -4.9065451185       -8.6367922387  MEMB      118             0.0000000000
     14476       118  DOPC      H11S          -19.0672925407       -3.6612019856       -8.1330561808  MEMB      118             0.0000000000
     14477       118  DOPC      C212          -19.4803688057       -5.2590800942       -6.6269786332  MEMB      118             0.0000000000
     14478       118  DOPC      H12R          -20.5100786159       -5.0054180080       -6.2918685259  MEMB      118             0.0000000000
     14479       118  DOPC      H12S          -18.7651853768       -4.7493342057       -5.9435042092  MEMB      118             0.0000000000
     14480       118  DOPC      C213          -19.2667369609       -6.7868216031       -6.4770706177  MEMB      118             0.0000000000
     14481       118  DOPC      H13R          -18.1815248892       -7.0363665681       -6.4404037508  MEMB      118             0.0000000000
     14482       118  DOPC      H13S          -19.7127508520       -7.2946829554       -7.3603035989  MEMB      118             0.0000000000
     14483       118  DOPC      C214          -19.9946578722       -7.4264262699       -5.3126605284  MEMB      118             0.0000000000
     14484       118  DOPC      H14R          -21.0417728334       -7.0834520907       -5.4059946023  MEMB      118             0.0000000000
     14485       118  DOPC      H14S          -19.5673045264       -7.0649345633       -4.3555319202  MEMB      118             0.0000000000
     14486       118  DOPC      C215          -19.9756325869       -8.9589321061       -5.4124727481  MEMB      118             0.0000000000
     14487       118  DOPC      H15R          -18.9210936423       -9.2906892981       -5.3123476654  MEMB      118             0.0000000000
     14488       118  DOPC      H15S          -20.3350945078       -9.2512820265       -6.4230684603  MEMB      118             0.0000000000
     14489       118  DOPC      C216          -20.8393308253       -9.6925185888       -4.3831309309  MEMB      118             0.0000000000
     14490       118  DOPC      H16R          -20.5662716477      -10.7726389624       -4.3733765500  MEMB      118             0.0000000000
     14491       118  DOPC      H16S          -21.9020359310       -9.6402166238       -4.6909999289  MEMB      118             0.0000000000
     14492       118  DOPC      C217          -20.6577056744       -9.1370396789       -2.9758714481  MEMB      118             0.0000000000
     14493       118  DOPC      H17R          -21.3427139667       -9.6539553321       -2.2704489837  MEMB      118             0.0000000000
     14494       118  DOPC      H17S          -20.9027485452       -8.0583508999       -2.8986381610  MEMB      118             0.0000000000
     14495       118  DOPC      C218          -19.2239357319       -9.2168356209       -2.5298269149  MEMB      118             0.0000000000
     14496       118  DOPC      H18R          -18.6404296991       -8.3852810534       -2.9791576834  MEMB      118             0.0000000000
     14497       118  DOPC      H18S          -18.7390799504      -10.1658730966       -2.8275270973  MEMB      118             0.0000000000
     14498       118  DOPC      H18T          -19.2184253931       -9.1219622773       -1.4272128952  MEMB      118             0.0000000000
     14499       118  DOPC      C33           -20.0188268593       -7.7263872758      -11.3092711469  MEMB      118             0.0000000000
     14500       118  DOPC      H3X           -21.0429566521       -8.1486273089      -11.4045046744  MEMB      118             0.0000000000
     14501       118  DOPC      H3Y           -20.1275394728       -6.6616829623      -10.9802712846  MEMB      118             0.0000000000
     14502       118  DOPC      C34           -19.2425933079       -8.4352871760      -10.2006162058  MEMB      118             0.0000000000
     14503       118  DOPC      H4X           -19.7246758209       -8.1969462348       -9.2279718905  MEMB      118             0.0000000000
     14504       118  DOPC      H4Y           -18.2020454214       -8.0317810429      -10.2161352034  MEMB      118             0.0000000000
     14505       118  DOPC      C35           -19.1530997785       -9.9428938515      -10.2854796516  MEMB      118             0.0000000000
     14506       118  DOPC      H5X           -18.8655525455      -10.1945426450      -11.3229033481  MEMB      118             0.0000000000
     14507       118  DOPC      H5Y           -20.1408780519      -10.4078472570      -10.0813941256  MEMB      118             0.0000000000
     14508       118  DOPC      C36           -18.0814750668      -10.5191199687       -9.3481106740  MEMB      118             0.0000000000
     14509       118  DOPC      H6X           -18.0764219175      -11.6041072174       -9.5877558149  MEMB      118             0.0000000000
     14510       118  DOPC      H6Y           -17.0747305149      -10.1012011030       -9.5849983148  MEMB      118             0.0000000000
     14511       118  DOPC      C37           -18.3259744356      -10.4108409279       -7.8362533070  MEMB      118             0.0000000000
     14512       118  DOPC      H7X           -18.0467923675       -9.3959270495       -7.4783715971  MEMB      118             0.0000000000
     14513       118  DOPC      H7Y           -19.4106413299      -10.5742556598       -7.6687288020  MEMB      118             0.0000000000
     14514       118  DOPC      C38           -17.5336481189      -11.4953901979       -7.0649058370  MEMB      118             0.0000000000
     14515       118  DOPC      H8X           -16.4723188410      -11.4138759734       -7.3849868964  MEMB      118             0.0000000000
     14516       118  DOPC      H8Y           -17.9151309623      -12.4627957083       -7.4571448117  MEMB      118             0.0000000000
     14517       118  DOPC      C39           -17.5976933742      -11.5686371354       -5.5595628565  MEMB      118             0.0000000000
     14518       118  DOPC      H9X           -18.4371204588      -12.1604089472       -5.1610918052  MEMB      118             0.0000000000
     14519       118  DOPC      C310          -16.7609527443      -10.9775451755       -4.6848697242  MEMB      118             0.0000000000
     14520       118  DOPC      H10X          -16.9256175742      -11.1476758714       -3.6096352981  MEMB      118             0.0000000000
     14521       118  DOPC      C311          -15.5727603756      -10.1023259084       -5.0021971468  MEMB      118             0.0000000000
     14522       118  DOPC      H11X          -15.3102223284      -10.1439637496       -6.0824708441  MEMB      118             0.0000000000
     14523       118  DOPC      H11Y          -14.6774496333      -10.4558282038       -4.4438780819  MEMB      118             0.0000000000
     14524       118  DOPC      C312          -15.8317425056       -8.6220329419       -4.6283796129  MEMB      118             0.0000000000
     14525       118  DOPC      H12X          -16.7903608397       -8.2839534523       -5.0792817716  MEMB      118             0.0000000000
     14526       118  DOPC      H12Y          -15.0245292267       -8.0029206728       -5.0824122131  MEMB      118             0.0000000000
     14527       118  DOPC      C313          -15.8314981446       -8.3705379888       -3.1078141570  MEMB      118             0.0000000000
     14528       118  DOPC      H13X          -16.5401747585       -9.0658934064       -2.6125228312  MEMB      118             0.0000000000
     14529       118  DOPC      H13Y          -14.8175406002       -8.6235351704       -2.7281090067  MEMB      118             0.0000000000
     14530       118  DOPC      C314          -16.1694815523       -6.9310631408       -2.6659680866  MEMB      118             0.0000000000
     14531       118  DOPC      H14X          -15.7824131867       -6.2039119969       -3.4082404060  MEMB      118             0.0000000000
     14532       118  DOPC      H14Y          -17.2712792788       -6.7882760782       -2.6600053441  MEMB      118             0.0000000000
     14533       118  DOPC      C315          -15.5827512433       -6.5727271494       -1.2797933967  MEMB      118             0.0000000000
     14534       118  DOPC      H15X          -15.8831460294       -5.5375392086       -1.0112101650  MEMB      118             0.0000000000
     14535       118  DOPC      H15Y          -14.4829197560       -6.5592499028       -1.3012917623  MEMB      118             0.0000000000
     14536       118  DOPC      C316          -15.9290519825       -7.5600169273       -0.1621895528  MEMB      118             0.0000000000
     14537       118  DOPC      H16X          -15.5671193689       -8.5835261496       -0.4063263388  MEMB      118             0.0000000000
     14538       118  DOPC      H16Y          -15.4434615091       -7.2400979124        0.7866028331  MEMB      118             0.0000000000
     14539       118  DOPC      C317          -17.4188877390       -7.6015884087        0.0305109436  MEMB      118             0.0000000000
     14540       118  DOPC      H17X          -17.8490813240       -7.9292340797       -0.9209244400  MEMB      118             0.0000000000
     14541       118  DOPC      H17Y          -17.7328552902       -8.3474470380        0.7797228867  MEMB      118             0.0000000000
     14542       118  DOPC      C318          -18.0147899262       -6.2515742520        0.3332937120  MEMB      118             0.0000000000
     14543       118  DOPC      H18X          -17.6088553015       -5.7996293131        1.2647347489  MEMB      118             0.0000000000
     14544       118  DOPC      H18Y          -17.9046437473       -5.5409700505       -0.5084179588  MEMB      118             0.0000000000
     14545       118  DOPC      H18Z          -19.0884449305       -6.4598969420        0.4029876641  MEMB      118             0.0000000000
     14546       119  DOPE      N              19.5088808636        6.6159455839      -17.3929091967  MEMB      119             0.0000000000
     14547       119  DOPE      HN1            19.5848322527        6.9360518673      -18.3909125633  MEMB      119             0.0000000000
     14548       119  DOPE      HN2            20.2221685079        7.1009659591      -16.8214720984  MEMB      119             0.0000000000
     14549       119  DOPE      HN3            19.6653855852        5.5890079741      -17.4049033516  MEMB      119             0.0000000000
     14550       119  DOPE      C12            18.0682860760        6.9099056683      -17.0637487883  MEMB      119             0.0000000000
     14551       119  DOPE      H12A           17.9149263825        8.0043015326      -17.1726509486  MEMB      119             0.0000000000
     14552       119  DOPE      H12B           17.8345260602        6.5854416757      -16.0335781454  MEMB      119             0.0000000000
     14553       119  DOPE      C11            17.2186717389        6.2243666958      -18.1209990529  MEMB      119             0.0000000000
     14554       119  DOPE      H11A           16.1488801970        6.5537993018      -18.0697050250  MEMB      119             0.0000000000
     14555       119  DOPE      H11B           17.2164158014        5.1252097884      -17.9515797183  MEMB      119             0.0000000000
     14556       119  DOPE      P              17.2374777452        7.6644360168      -20.2941667219  MEMB      119             0.0000000000
     14557       119  DOPE      O13            15.8225645655        7.3355424736      -20.5142739936  MEMB      119             0.0000000000
     14558       119  DOPE      O14            18.1227736641        7.8767565955      -21.4587318547  MEMB      119             0.0000000000
     14559       119  DOPE      O11            17.3449534260        8.9106634386      -19.2993517517  MEMB      119             0.0000000000
     14560       119  DOPE      O12            17.8297243463        6.4991706500      -19.3804973674  MEMB      119             0.0000000000
     14561       119  DOPE      C1             16.4322413110       10.0125859543      -19.5235533272  MEMB      119             0.0000000000
     14562       119  DOPE      HA             15.4924252355        9.7067957968      -20.0404791965  MEMB      119             0.0000000000
     14563       119  DOPE      HB             16.9349877322       10.7632281237      -20.1781777324  MEMB      119             0.0000000000
     14564       119  DOPE      C2             16.0066258607       10.7974054714      -18.2336360341  MEMB      119             0.0000000000
     14565       119  DOPE      HS             15.9589727638       11.8801352383      -18.4939652397  MEMB      119             0.0000000000
     14566       119  DOPE      O21            16.9424378681       10.5753099755      -17.1749682722  MEMB      119             0.0000000000
     14567       119  DOPE      C21            18.0713468472       11.2279551263      -17.3102630055  MEMB      119             0.0000000000
     14568       119  DOPE      O22            18.3570281304       11.9952899102      -18.2173946665  MEMB      119             0.0000000000
     14569       119  DOPE      C22            18.9475716771       10.9178988560      -16.0905530939  MEMB      119             0.0000000000
     14570       119  DOPE      H2R            19.0608552550       11.8784473560      -15.5603072265  MEMB      119             0.0000000000
     14571       119  DOPE      H2S            19.9486098916       10.5980194164      -16.4286066771  MEMB      119             0.0000000000
     14572       119  DOPE      C3             14.5786457115       10.4660345956      -17.6968045282  MEMB      119             0.0000000000
     14573       119  DOPE      HX             13.8764850104       10.4864820137      -18.5578383077  MEMB      119             0.0000000000
     14574       119  DOPE      HY             14.2630343532       11.2825344822      -17.0068311345  MEMB      119             0.0000000000
     14575       119  DOPE      O31            14.5026975221        9.1760980010      -17.0754941165  MEMB      119             0.0000000000
     14576       119  DOPE      C31            14.6952105096        9.1342720230      -15.7660395038  MEMB      119             0.0000000000
     14577       119  DOPE      O32            14.6864059552       10.0758200923      -15.0014943988  MEMB      119             0.0000000000
     14578       119  DOPE      C32            14.8635239898        7.6628980771      -15.4052097644  MEMB      119             0.0000000000
     14579       119  DOPE      H2X            13.8285005292        7.3311840377      -15.2412592069  MEMB      119             0.0000000000
     14580       119  DOPE      H2Y            15.2580515797        7.1444532610      -16.2996241718  MEMB      119             0.0000000000
     14581       119  DOPE      C23            18.3394973504        9.9045730548      -15.0837097724  MEMB      119             0.0000000000
     14582       119  DOPE      H3R            18.3961190939        8.8841441024      -15.4838865324  MEMB      119             0.0000000000
     14583       119  DOPE      H3S            17.2652205335       10.1432144366      -14.8820788431  MEMB      119             0.0000000000
     14584       119  DOPE      C24            19.0301473658        9.8929981050      -13.7164893132  MEMB      119             0.0000000000
     14585       119  DOPE      H4R            18.7869642735       10.8723037738      -13.2522086948  MEMB      119             0.0000000000
     14586       119  DOPE      H4S            20.1313854607        9.8161988940      -13.8180322752  MEMB      119             0.0000000000
     14587       119  DOPE      C25            18.4825354012        8.7738692428      -12.8215892646  MEMB      119             0.0000000000
     14588       119  DOPE      H5R            18.6386948709        7.7834673973      -13.2986547946  MEMB      119             0.0000000000
     14589       119  DOPE      H5S            17.3893237787        8.9703352992      -12.7430003172  MEMB      119             0.0000000000
     14590       119  DOPE      C26            19.0103303229        8.7317211220      -11.3848066587  MEMB      119             0.0000000000
     14591       119  DOPE      H6R            20.0978125970        8.5070493302      -11.4058411095  MEMB      119             0.0000000000
     14592       119  DOPE      H6S            18.5265415649        7.9212808053      -10.7991827629  MEMB      119             0.0000000000
     14593       119  DOPE      C27            18.7588213720       10.0571534767      -10.6750480208  MEMB      119             0.0000000000
     14594       119  DOPE      H7R            17.7240874096       10.4281450529      -10.7524670225  MEMB      119             0.0000000000
     14595       119  DOPE      H7S            19.3704419069       10.7922224652      -11.2419181827  MEMB      119             0.0000000000
     14596       119  DOPE      C28            19.2776955643       10.0921656046       -9.2357322336  MEMB      119             0.0000000000
     14597       119  DOPE      H8R            19.6362613069       11.1338070099       -9.1968370292  MEMB      119             0.0000000000
     14598       119  DOPE      H8S            20.1799883878        9.4416189334       -9.2069141820  MEMB      119             0.0000000000
     14599       119  DOPE      C29            18.4881497584       10.0136809670       -7.9630627822  MEMB      119             0.0000000000
     14600       119  DOPE      H9R            17.8028863686       10.8552539413       -7.7804968840  MEMB      119             0.0000000000
     14601       119  DOPE      C210           18.6219216123        9.0876859053       -7.0161747667  MEMB      119             0.0000000000
     14602       119  DOPE      H10R           18.0909254337        9.2201869424       -6.0615432234  MEMB      119             0.0000000000
     14603       119  DOPE      C211           19.5679361792        7.9359904224       -7.0556292713  MEMB      119             0.0000000000
     14604       119  DOPE      H11R           19.9448134053        7.7236130260       -8.0819078418  MEMB      119             0.0000000000
     14605       119  DOPE      H11S           19.0052968789        7.0500309230       -6.7196877576  MEMB      119             0.0000000000
     14606       119  DOPE      C212           20.7662748065        8.0644836602       -6.1386735295  MEMB      119             0.0000000000
     14607       119  DOPE      H12R           21.3058014953        9.0168591360       -6.3364863453  MEMB      119             0.0000000000
     14608       119  DOPE      H12S           21.4299417962        7.2122708149       -6.4098335793  MEMB      119             0.0000000000
     14609       119  DOPE      C213           20.4188129475        7.9080263606       -4.6604080801  MEMB      119             0.0000000000
     14610       119  DOPE      H13R           19.6576984094        7.1367946023       -4.5279562109  MEMB      119             0.0000000000
     14611       119  DOPE      H13S           19.9582533213        8.8450759068       -4.2996758771  MEMB      119             0.0000000000
     14612       119  DOPE      C214           21.6134565834        7.3969948790       -3.8607827053  MEMB      119             0.0000000000
     14613       119  DOPE      H14R           22.2942538471        8.2545193088       -3.7335867239  MEMB      119             0.0000000000
     14614       119  DOPE      H14S           22.1322098988        6.6154988730       -4.4600735201  MEMB      119             0.0000000000
     14615       119  DOPE      C215           21.3314796765        6.7048499167       -2.5263228407  MEMB      119             0.0000000000
     14616       119  DOPE      H15R           22.3188458173        6.4192414438       -2.0920099337  MEMB      119             0.0000000000
     14617       119  DOPE      H15S           20.7738762968        5.7638904563       -2.7186370779  MEMB      119             0.0000000000
     14618       119  DOPE      C216           20.5692539061        7.5501349112       -1.5097214533  MEMB      119             0.0000000000
     14619       119  DOPE      H16R           19.5046782491        7.6473893920       -1.8028237316  MEMB      119             0.0000000000
     14620       119  DOPE      H16S           21.0053813643        8.5688992302       -1.4825732176  MEMB      119             0.0000000000
     14621       119  DOPE      C217           20.7034972700        7.0208416138       -0.0827902387  MEMB      119             0.0000000000
     14622       119  DOPE      H17R           19.9102009305        7.4876856364        0.5421353125  MEMB      119             0.0000000000
     14623       119  DOPE      H17S           21.6821765709        7.3875036172        0.2873201976  MEMB      119             0.0000000000
     14624       119  DOPE      C218           20.6949388479        5.5014706063        0.0800009451  MEMB      119             0.0000000000
     14625       119  DOPE      H18R           19.7471567883        5.0780912963       -0.3043492603  MEMB      119             0.0000000000
     14626       119  DOPE      H18S           20.7998160348        5.2348285652        1.1526795702  MEMB      119             0.0000000000
     14627       119  DOPE      H18T           21.5404061641        5.0333928748       -0.4687028360  MEMB      119             0.0000000000
     14628       119  DOPE      C33            15.7849215493        7.2859002180      -14.2200061479  MEMB      119             0.0000000000
     14629       119  DOPE      H3X            16.7706456174        7.7560017508      -14.3575227836  MEMB      119             0.0000000000
     14630       119  DOPE      H3Y            15.9383934581        6.1827281621      -14.2583596985  MEMB      119             0.0000000000
     14631       119  DOPE      C34            15.1995534022        7.6025838013      -12.8422987030  MEMB      119             0.0000000000
     14632       119  DOPE      H4X            15.2954722599        8.6926719509      -12.6402782862  MEMB      119             0.0000000000
     14633       119  DOPE      H4Y            14.1196345954        7.3981770991      -12.9087368225  MEMB      119             0.0000000000
     14634       119  DOPE      C35            15.8218079264        6.7895134306      -11.6835300039  MEMB      119             0.0000000000
     14635       119  DOPE      H5X            16.8510499425        7.1478265363      -11.5176954774  MEMB      119             0.0000000000
     14636       119  DOPE      H5Y            15.9036353637        5.7202719193      -11.9683573264  MEMB      119             0.0000000000
     14637       119  DOPE      C36            15.0777322733        6.8973657587      -10.3381136269  MEMB      119             0.0000000000
     14638       119  DOPE      H6X            15.7689253640        6.6185667067       -9.5088086024  MEMB      119             0.0000000000
     14639       119  DOPE      H6Y            14.2579445285        6.1533010701      -10.2924669354  MEMB      119             0.0000000000
     14640       119  DOPE      C37            14.4873572187        8.2956069332      -10.0816015849  MEMB      119             0.0000000000
     14641       119  DOPE      H7X            13.8840711798        8.6673192920      -10.9258446989  MEMB      119             0.0000000000
     14642       119  DOPE      H7Y            13.7357444813        8.2202296584       -9.2814773775  MEMB      119             0.0000000000
     14643       119  DOPE      C38            15.5939152928        9.3244221349       -9.8137163214  MEMB      119             0.0000000000
     14644       119  DOPE      H8X            15.8613700663        9.7117307890      -10.8217470713  MEMB      119             0.0000000000
     14645       119  DOPE      H8Y            16.4809590438        8.7563447775       -9.4505585579  MEMB      119             0.0000000000
     14646       119  DOPE      C39            15.3705156163       10.4815182349       -8.8776339365  MEMB      119             0.0000000000
     14647       119  DOPE      H9X            15.6002721116       11.4733867391       -9.3007705830  MEMB      119             0.0000000000
     14648       119  DOPE      C310           14.9311936720       10.3778067422       -7.6116269773  MEMB      119             0.0000000000
     14649       119  DOPE      H10X           14.8302254721       11.2861893776       -6.9993075103  MEMB      119             0.0000000000
     14650       119  DOPE      C311           14.5769167375        9.0869415953       -6.9238487805  MEMB      119             0.0000000000
     14651       119  DOPE      H11X           13.5589212957        9.1343537986       -6.4981689673  MEMB      119             0.0000000000
     14652       119  DOPE      H11Y           14.5280983509        8.2480877145       -7.6330974060  MEMB      119             0.0000000000
     14653       119  DOPE      C312           15.5650437961        8.4425447490       -5.9683458618  MEMB      119             0.0000000000
     14654       119  DOPE      H12X           16.0194062986        9.1084788761       -5.2103466259  MEMB      119             0.0000000000
     14655       119  DOPE      H12Y           16.3733821869        8.0852761529       -6.6465910680  MEMB      119             0.0000000000
     14656       119  DOPE      C313           14.9771117869        7.1616493421       -5.3650606278  MEMB      119             0.0000000000
     14657       119  DOPE      H13X           14.4869492885        7.3011223094       -4.3823097112  MEMB      119             0.0000000000
     14658       119  DOPE      H13Y           14.2030760470        6.8087278573       -6.0695350972  MEMB      119             0.0000000000
     14659       119  DOPE      C314           16.0383677922        6.0870755561       -5.3243215514  MEMB      119             0.0000000000
     14660       119  DOPE      H14X           16.3391966457        5.9269856574       -6.3916517875  MEMB      119             0.0000000000
     14661       119  DOPE      H14Y           15.6646731515        5.1197925038       -4.9362255677  MEMB      119             0.0000000000
     14662       119  DOPE      C315           17.2767397424        6.5724664876       -4.5957084534  MEMB      119             0.0000000000
     14663       119  DOPE      H15X           17.5746630220        7.5916913612       -4.9147042240  MEMB      119             0.0000000000
     14664       119  DOPE      H15Y           18.1245305511        5.9831510830       -4.9365014070  MEMB      119             0.0000000000
     14665       119  DOPE      C316           17.3071797963        6.5739020942       -3.0722741077  MEMB      119             0.0000000000
     14666       119  DOPE      H16X           17.3211080819        7.6412889956       -2.8775012595  MEMB      119             0.0000000000
     14667       119  DOPE      H16Y           18.3007471941        6.2381804242       -2.7202431614  MEMB      119             0.0000000000
     14668       119  DOPE      C317           16.2303222626        5.8524192358       -2.2632459863  MEMB      119             0.0000000000
     14669       119  DOPE      H17X           15.2583393324        6.3802151176       -2.3524342557  MEMB      119             0.0000000000
     14670       119  DOPE      H17Y           16.0840769612        4.8218456224       -2.6533349197  MEMB      119             0.0000000000
     14671       119  DOPE      C318           16.6405481983        5.7716191847       -0.7895707225  MEMB      119             0.0000000000
     14672       119  DOPE      H18X           16.7130402321        6.7739361976       -0.3354503220  MEMB      119             0.0000000000
     14673       119  DOPE      H18Y           15.9273529632        5.1629728120       -0.1975374370  MEMB      119             0.0000000000
     14674       119  DOPE      H18Z           17.6480637119        5.3144160245       -0.7065825530  MEMB      119             0.0000000000
     14675       120  DOPC      N              10.4999734152      -13.6849894643      -19.5624785337  MEMB      120             0.0000000000
     14676       120  DOPC      C12            11.1671616063      -14.7665746668      -20.4146318063  MEMB      120             0.0000000000
     14677       120  DOPC      H12A           12.1721562919      -14.4138309934      -20.6425933946  MEMB      120             0.0000000000
     14678       120  DOPC      H12B           10.6583486816      -14.8747487492      -21.3662551288  MEMB      120             0.0000000000
     14679       120  DOPC      C13            10.0211943586      -12.5821233348      -20.4484773449  MEMB      120             0.0000000000
     14680       120  DOPC      H13A            9.7500631792      -11.7030810344      -19.8890252488  MEMB      120             0.0000000000
     14681       120  DOPC      H13B           10.8125830282      -12.2795085609      -21.1406303914  MEMB      120             0.0000000000
     14682       120  DOPC      H13C            9.1952759507      -12.9092622211      -21.0664148112  MEMB      120             0.0000000000
     14683       120  DOPC      C14            11.5592602237      -13.1725131882      -18.6228653266  MEMB      120             0.0000000000
     14684       120  DOPC      H14A           12.1172413784      -14.0344981303      -18.2375225221  MEMB      120             0.0000000000
     14685       120  DOPC      H14B           12.3096621255      -12.5737785112      -19.1253410708  MEMB      120             0.0000000000
     14686       120  DOPC      H14C           11.1870065920      -12.6275382400      -17.7694743365  MEMB      120             0.0000000000
     14687       120  DOPC      C15             9.3605879808      -14.2706725300      -18.8000042790  MEMB      120             0.0000000000
     14688       120  DOPC      H15A            9.7123956881      -15.1402734314      -18.2415566390  MEMB      120             0.0000000000
     14689       120  DOPC      H15B            8.5670304807      -14.6164959759      -19.4540464361  MEMB      120             0.0000000000
     14690       120  DOPC      H15C            8.9521941827      -13.5413975009      -18.1217756572  MEMB      120             0.0000000000
     14691       120  DOPC      C11            11.3071749112      -16.1861917103      -19.8050301939  MEMB      120             0.0000000000
     14692       120  DOPC      H11A           10.3028563083      -16.6312387793      -19.6506171454  MEMB      120             0.0000000000
     14693       120  DOPC      H11B           11.8129558051      -16.8501215157      -20.5503021524  MEMB      120             0.0000000000
     14694       120  DOPC      P              13.5483364841      -16.3211587118      -18.5049162702  MEMB      120             0.0000000000
     14695       120  DOPC      O13            14.1216426566      -15.0195125041      -18.8969456359  MEMB      120             0.0000000000
     14696       120  DOPC      O14            13.9675672758      -17.4695332961      -19.3162985665  MEMB      120             0.0000000000
     14697       120  DOPC      O12            11.9756059239      -16.1673969682      -18.5489661966  MEMB      120             0.0000000000
     14698       120  DOPC      O11            13.8530601414      -16.5520749950      -16.9662861047  MEMB      120             0.0000000000
     14699       120  DOPC      C1             12.7864924286      -16.6596687674      -16.0216920404  MEMB      120             0.0000000000
     14700       120  DOPC      HA             13.1730637094      -17.1125322047      -15.0828197403  MEMB      120             0.0000000000
     14701       120  DOPC      HB             11.9908740400      -17.3420711666      -16.4036568827  MEMB      120             0.0000000000
     14702       120  DOPC      C2             12.1477438466      -15.2857094640      -15.6613990268  MEMB      120             0.0000000000
     14703       120  DOPC      HS             12.0130390255      -14.7269020183      -16.6069668370  MEMB      120             0.0000000000
     14704       120  DOPC      O21            13.0057985141      -14.5629054019      -14.7569766465  MEMB      120             0.0000000000
     14705       120  DOPC      C21            12.7034503673      -13.2807885308      -14.6739972929  MEMB      120             0.0000000000
     14706       120  DOPC      O22            11.8824948797      -12.6977748106      -15.3714441218  MEMB      120             0.0000000000
     14707       120  DOPC      C22            13.5036747024      -12.6356783930      -13.5503895770  MEMB      120             0.0000000000
     14708       120  DOPC      H2R            14.2328049743      -11.9406626815      -14.0129253630  MEMB      120             0.0000000000
     14709       120  DOPC      H2S            14.0663971431      -13.4186934268      -13.0001253505  MEMB      120             0.0000000000
     14710       120  DOPC      C3             10.7409459126      -15.4878386581      -15.0429562326  MEMB      120             0.0000000000
     14711       120  DOPC      HX             10.1114503676      -15.9463119468      -15.8431763828  MEMB      120             0.0000000000
     14712       120  DOPC      HY             10.2787290751      -14.5198742368      -14.7500233716  MEMB      120             0.0000000000
     14713       120  DOPC      O31            10.8590066513      -16.3460152757      -13.9008383660  MEMB      120             0.0000000000
     14714       120  DOPC      C31             9.7279702882      -16.9253127656      -13.5448698051  MEMB      120             0.0000000000
     14715       120  DOPC      O32             8.6452441241      -16.7663453653      -14.0801664695  MEMB      120             0.0000000000
     14716       120  DOPC      C32             9.9659736864      -17.8534874517      -12.3601677682  MEMB      120             0.0000000000
     14717       120  DOPC      H2X             9.1499631187      -17.7009223033      -11.6286204841  MEMB      120             0.0000000000
     14718       120  DOPC      H2Y             9.8802870617      -18.8822580833      -12.7525620041  MEMB      120             0.0000000000
     14719       120  DOPC      C23            12.5601700506      -11.8874548098      -12.5897222893  MEMB      120             0.0000000000
     14720       120  DOPC      H3R            12.1466735657      -10.9803575746      -13.0881301243  MEMB      120             0.0000000000
     14721       120  DOPC      H3S            13.1547205448      -11.5347122415      -11.7167907949  MEMB      120             0.0000000000
     14722       120  DOPC      C24            11.3951691174      -12.7670430541      -12.1043551916  MEMB      120             0.0000000000
     14723       120  DOPC      H4R            11.6421641644      -13.8489169588      -12.1885091667  MEMB      120             0.0000000000
     14724       120  DOPC      H4S            10.5239417075      -12.5738731025      -12.7745918254  MEMB      120             0.0000000000
     14725       120  DOPC      C25            10.9772881196      -12.4736961809      -10.6616314027  MEMB      120             0.0000000000
     14726       120  DOPC      H5R             9.9158999545      -12.7886560351      -10.5297607902  MEMB      120             0.0000000000
     14727       120  DOPC      H5S            11.0243894000      -11.3721765605      -10.4988610544  MEMB      120             0.0000000000
     14728       120  DOPC      C26            11.8145203806      -13.1954844575       -9.5878408690  MEMB      120             0.0000000000
     14729       120  DOPC      H6R            12.8958164068      -13.1075789864       -9.8300358607  MEMB      120             0.0000000000
     14730       120  DOPC      H6S            11.5487112678      -14.2758010507       -9.5845025517  MEMB      120             0.0000000000
     14731       120  DOPC      C27            11.5247102229      -12.5689064730       -8.2153029489  MEMB      120             0.0000000000
     14732       120  DOPC      H7R            10.4298384902      -12.6503993116       -8.0321282284  MEMB      120             0.0000000000
     14733       120  DOPC      H7S            11.7744535433      -11.4851020262       -8.3055924985  MEMB      120             0.0000000000
     14734       120  DOPC      C28            12.2707726885      -13.1198790081       -6.9822584532  MEMB      120             0.0000000000
     14735       120  DOPC      H8R            12.2452946255      -12.3210127705       -6.2047434479  MEMB      120             0.0000000000
     14736       120  DOPC      H8S            13.3422195467      -13.2644591595       -7.2432383992  MEMB      120             0.0000000000
     14737       120  DOPC      C29            11.6543941214      -14.3946531909       -6.4540811211  MEMB      120             0.0000000000
     14738       120  DOPC      H9R            11.9388789879      -15.2952080433       -7.0185608803  MEMB      120             0.0000000000
     14739       120  DOPC      C210           10.8203094800      -14.5558082402       -5.4041748915  MEMB      120             0.0000000000
     14740       120  DOPC      H10R           10.4457745729      -15.5695997340       -5.2055421365  MEMB      120             0.0000000000
     14741       120  DOPC      C211           10.2559778698      -13.5285850377       -4.4509861918  MEMB      120             0.0000000000
     14742       120  DOPC      H11R            9.1824141973      -13.3404115964       -4.6742929390  MEMB      120             0.0000000000
     14743       120  DOPC      H11S           10.7575285911      -12.5404190969       -4.5709424705  MEMB      120             0.0000000000
     14744       120  DOPC      C212           10.3988531636      -13.9272819432       -2.9588672831  MEMB      120             0.0000000000
     14745       120  DOPC      H12R            9.7923039176      -13.2238648123       -2.3467082571  MEMB      120             0.0000000000
     14746       120  DOPC      H12S           11.4686959857      -13.7784647887       -2.6880503065  MEMB      120             0.0000000000
     14747       120  DOPC      C213           10.0362955240      -15.3552548483       -2.5027561042  MEMB      120             0.0000000000
     14748       120  DOPC      H13R           10.4893872130      -15.4702192553       -1.4866219685  MEMB      120             0.0000000000
     14749       120  DOPC      H13S           10.4956124413      -16.1398701745       -3.1303648883  MEMB      120             0.0000000000
     14750       120  DOPC      C214            8.5428771711      -15.6192879956       -2.3025685964  MEMB      120             0.0000000000
     14751       120  DOPC      H14R            7.9760885172      -15.6330501942       -3.2535283477  MEMB      120             0.0000000000
     14752       120  DOPC      H14S            8.1367043338      -14.7846536471       -1.6832743694  MEMB      120             0.0000000000
     14753       120  DOPC      C215            8.3180988487      -16.9391558468       -1.5532643051  MEMB      120             0.0000000000
     14754       120  DOPC      H15R            7.5145152644      -16.7415827230       -0.8182256714  MEMB      120             0.0000000000
     14755       120  DOPC      H15S            9.2404768024      -17.2063262670       -0.9939785311  MEMB      120             0.0000000000
     14756       120  DOPC      C216            7.8593884775      -18.0976110669       -2.4527935729  MEMB      120             0.0000000000
     14757       120  DOPC      H16R            8.5238863372      -18.1716421283       -3.3337468866  MEMB      120             0.0000000000
     14758       120  DOPC      H16S            6.8424107359      -17.8300260804       -2.8238688809  MEMB      120             0.0000000000
     14759       120  DOPC      C217            7.7963112741      -19.4787711907       -1.7745948716  MEMB      120             0.0000000000
     14760       120  DOPC      H17R            7.2665144203      -20.1988008417       -2.4314186694  MEMB      120             0.0000000000
     14761       120  DOPC      H17S            7.2062855343      -19.4012219660       -0.8436522614  MEMB      120             0.0000000000
     14762       120  DOPC      C218            9.1103764142      -20.1738075930       -1.4879111600  MEMB      120             0.0000000000
     14763       120  DOPC      H18R            8.9469195078      -21.0421727556       -0.8161825273  MEMB      120             0.0000000000
     14764       120  DOPC      H18S            9.7663559900      -19.4834647359       -0.9724905436  MEMB      120             0.0000000000
     14765       120  DOPC      H18T            9.5947058476      -20.5063075298       -2.4301775793  MEMB      120             0.0000000000
     14766       120  DOPC      C33            11.3251384298      -17.6881913620      -11.6548868402  MEMB      120             0.0000000000
     14767       120  DOPC      H3X            11.5296848913      -16.6231438488      -11.3979340074  MEMB      120             0.0000000000
     14768       120  DOPC      H3Y            12.1400737245      -18.0305743118      -12.3351131297  MEMB      120             0.0000000000
     14769       120  DOPC      C34            11.3719397090      -18.4823105758      -10.3489162039  MEMB      120             0.0000000000
     14770       120  DOPC      H4X            10.8499403446      -19.4566578289      -10.4758100065  MEMB      120             0.0000000000
     14771       120  DOPC      H4Y            10.8029443041      -17.9115447342       -9.5789508207  MEMB      120             0.0000000000
     14772       120  DOPC      C35            12.8200698326      -18.6108629543       -9.8717014444  MEMB      120             0.0000000000
     14773       120  DOPC      H5X            13.5045786292      -18.5076413857      -10.7454189032  MEMB      120             0.0000000000
     14774       120  DOPC      H5Y            13.0306038783      -19.6055509785       -9.4188489687  MEMB      120             0.0000000000
     14775       120  DOPC      C36            13.1079928083      -17.4894239336       -8.8646625379  MEMB      120             0.0000000000
     14776       120  DOPC      H6X            12.7479008065      -16.5215688005       -9.2843044082  MEMB      120             0.0000000000
     14777       120  DOPC      H6Y            12.5287258103      -17.6945785460       -7.9377087267  MEMB      120             0.0000000000
     14778       120  DOPC      C37            14.5838181732      -17.3188359943       -8.5169154731  MEMB      120             0.0000000000
     14779       120  DOPC      H7X            14.9937266026      -18.3042647665       -8.1935000866  MEMB      120             0.0000000000
     14780       120  DOPC      H7Y            15.1323575476      -16.9979224620       -9.4326878238  MEMB      120             0.0000000000
     14781       120  DOPC      C38            14.8088245514      -16.2972090983       -7.3936020277  MEMB      120             0.0000000000
     14782       120  DOPC      H8X            14.2943289548      -16.6558785571       -6.4716540078  MEMB      120             0.0000000000
     14783       120  DOPC      H8Y            14.3504214220      -15.3141808018       -7.6341814669  MEMB      120             0.0000000000
     14784       120  DOPC      C39            16.3008167031      -16.1674293752       -7.2288009580  MEMB      120             0.0000000000
     14785       120  DOPC      H9X            16.7883002329      -15.4921730969       -7.9488687049  MEMB      120             0.0000000000
     14786       120  DOPC      C310           17.0309973586      -16.7378265850       -6.2551582782  MEMB      120             0.0000000000
     14787       120  DOPC      H10X           18.1186804759      -16.5669362719       -6.2028695450  MEMB      120             0.0000000000
     14788       120  DOPC      C311           16.4294243900      -17.5957978716       -5.1771768552  MEMB      120             0.0000000000
     14789       120  DOPC      H11X           17.1821164100      -18.2597412529       -4.7027439273  MEMB      120             0.0000000000
     14790       120  DOPC      H11Y           15.6339210439      -18.2535958205       -5.5951220273  MEMB      120             0.0000000000
     14791       120  DOPC      C312           15.8050234648      -16.6519653950       -4.1422121588  MEMB      120             0.0000000000
     14792       120  DOPC      H12X           15.2002642763      -15.8690599101       -4.6622956942  MEMB      120             0.0000000000
     14793       120  DOPC      H12Y           16.5885348706      -16.1098523842       -3.5699060533  MEMB      120             0.0000000000
     14794       120  DOPC      C313           14.8301097733      -17.3478865014       -3.2003435795  MEMB      120             0.0000000000
     14795       120  DOPC      H13X           14.2654404154      -18.1372033299       -3.7369236272  MEMB      120             0.0000000000
     14796       120  DOPC      H13Y           15.3831639529      -17.8508673110       -2.3786884395  MEMB      120             0.0000000000
     14797       120  DOPC      C314           13.8265842182      -16.3260787950       -2.6831959238  MEMB      120             0.0000000000
     14798       120  DOPC      H14X           13.3757777582      -15.7297552991       -3.5092028533  MEMB      120             0.0000000000
     14799       120  DOPC      H14Y           12.9579258544      -16.8435513705       -2.2403812773  MEMB      120             0.0000000000
     14800       120  DOPC      C315           14.4639763896      -15.3553262356       -1.6975133983  MEMB      120             0.0000000000
     14801       120  DOPC      H15X           13.5874785504      -15.0028429803       -1.1213778847  MEMB      120             0.0000000000
     14802       120  DOPC      H15Y           14.9247116891      -14.4841771525       -2.2120312336  MEMB      120             0.0000000000
     14803       120  DOPC      C316           15.4800336502      -15.9295508911       -0.7030592022  MEMB      120             0.0000000000
     14804       120  DOPC      H16X           15.2804830104      -17.0108835023       -0.5303553276  MEMB      120             0.0000000000
     14805       120  DOPC      H16Y           16.5276348447      -15.8395721985       -1.0701963584  MEMB      120             0.0000000000
     14806       120  DOPC      C317           15.2998849666      -15.1672991957        0.6038896654  MEMB      120             0.0000000000
     14807       120  DOPC      H17X           15.5024919183      -14.0929283598        0.4393081376  MEMB      120             0.0000000000
     14808       120  DOPC      H17Y           14.2203401854      -15.2435824276        0.8678710917  MEMB      120             0.0000000000
     14809       120  DOPC      C318           16.0892103341      -15.7058925935        1.7775550110  MEMB      120             0.0000000000
     14810       120  DOPC      H18X           17.1828150524      -15.6275795809        1.6583236376  MEMB      120             0.0000000000
     14811       120  DOPC      H18Y           15.7684747363      -15.2194985398        2.7160366177  MEMB      120             0.0000000000
     14812       120  DOPC      H18Z           15.8396593432      -16.7635632835        1.8770150245  MEMB      120             0.0000000000
     14813       121  DOPE      N             -10.7091644866      -14.7905584528      -20.2436236063  MEMB      121             0.0000000000
     14814       121  DOPE      HN1           -10.5089575045      -14.5003251379      -21.2238381958  MEMB      121             0.0000000000
     14815       121  DOPE      HN2           -11.0494855458      -13.9614933211      -19.6894720457  MEMB      121             0.0000000000
     14816       121  DOPE      HN3            -9.8734790452      -15.2139953717      -19.7861617445  MEMB      121             0.0000000000
     14817       121  DOPE      C12           -11.9188385172      -15.6876637310      -20.2640269025  MEMB      121             0.0000000000
     14818       121  DOPE      H12A          -12.0150618929      -16.1493308907      -19.2584429703  MEMB      121             0.0000000000
     14819       121  DOPE      H12B          -11.7829365888      -16.4800147005      -21.0242821113  MEMB      121             0.0000000000
     14820       121  DOPE      C11           -13.1461125755      -14.8178878758      -20.5712998589  MEMB      121             0.0000000000
     14821       121  DOPE      H11A          -14.0913001287      -15.4111402439      -20.4789726980  MEMB      121             0.0000000000
     14822       121  DOPE      H11B          -13.1166145119      -14.4609695993      -21.6251955344  MEMB      121             0.0000000000
     14823       121  DOPE      P             -13.6294533804      -13.8675943942      -18.2189570659  MEMB      121             0.0000000000
     14824       121  DOPE      O13           -12.4360077082      -13.5074324772      -17.4125561597  MEMB      121             0.0000000000
     14825       121  DOPE      O14           -14.2004491838      -15.2226044569      -18.0493317786  MEMB      121             0.0000000000
     14826       121  DOPE      O11           -14.7191695512      -12.7313532551      -18.2412379651  MEMB      121             0.0000000000
     14827       121  DOPE      O12           -13.1366141295      -13.6779528461      -19.7095418906  MEMB      121             0.0000000000
     14828       121  DOPE      C1            -14.4430995217      -11.4557754817      -17.6657560391  MEMB      121             0.0000000000
     14829       121  DOPE      HA            -14.8292288258      -10.6726023084      -18.3508945789  MEMB      121             0.0000000000
     14830       121  DOPE      HB            -13.3551684800      -11.2469812436      -17.5267446320  MEMB      121             0.0000000000
     14831       121  DOPE      C2            -15.1273745133      -11.3417253058      -16.2883878962  MEMB      121             0.0000000000
     14832       121  DOPE      HS            -14.7519762928      -10.4108736123      -15.7988029880  MEMB      121             0.0000000000
     14833       121  DOPE      O21           -14.8564901256      -12.5541866983      -15.5375027127  MEMB      121             0.0000000000
     14834       121  DOPE      C21           -14.1976986728      -12.3959143073      -14.4084713060  MEMB      121             0.0000000000
     14835       121  DOPE      O22           -14.0847671243      -11.3351854810      -13.8182088290  MEMB      121             0.0000000000
     14836       121  DOPE      C22           -13.5813853398      -13.7286255693      -13.9236161251  MEMB      121             0.0000000000
     14837       121  DOPE      H2R           -12.8040887007      -14.0157236895      -14.6580767997  MEMB      121             0.0000000000
     14838       121  DOPE      H2S           -14.3990940878      -14.4783625715      -13.9713429777  MEMB      121             0.0000000000
     14839       121  DOPE      C3            -16.6482263418      -11.1542214110      -16.5135787335  MEMB      121             0.0000000000
     14840       121  DOPE      HX            -17.0365267536      -12.0153104740      -17.1123109977  MEMB      121             0.0000000000
     14841       121  DOPE      HY            -16.7909260313      -10.2635376873      -17.1554431182  MEMB      121             0.0000000000
     14842       121  DOPE      O31           -17.3091879273      -10.9186392951      -15.2503588277  MEMB      121             0.0000000000
     14843       121  DOPE      C31           -17.8348821203      -12.0233857147      -14.7288883340  MEMB      121             0.0000000000
     14844       121  DOPE      O32           -18.0676129001      -13.0358515315      -15.3621317883  MEMB      121             0.0000000000
     14845       121  DOPE      C32           -18.0977448139      -11.8180571841      -13.2321813319  MEMB      121             0.0000000000
     14846       121  DOPE      H2X           -18.4000727733      -10.7511536060      -13.1698711073  MEMB      121             0.0000000000
     14847       121  DOPE      H2Y           -18.9476872171      -12.4431895811      -12.9110192551  MEMB      121             0.0000000000
     14848       121  DOPE      C23           -12.9841448336      -13.7048662015      -12.4768685150  MEMB      121             0.0000000000
     14849       121  DOPE      H3R           -13.4078313475      -14.5701310156      -11.9142466634  MEMB      121             0.0000000000
     14850       121  DOPE      H3S           -13.3392218356      -12.7912591569      -11.9506186864  MEMB      121             0.0000000000
     14851       121  DOPE      C24           -11.4452347558      -13.7640707615      -12.3486258888  MEMB      121             0.0000000000
     14852       121  DOPE      H4R           -10.9874156181      -13.3432627641      -13.2645459635  MEMB      121             0.0000000000
     14853       121  DOPE      H4S           -11.1413560519      -14.8322007502      -12.2913643871  MEMB      121             0.0000000000
     14854       121  DOPE      C25           -10.9211350580      -13.0026137748      -11.1070165408  MEMB      121             0.0000000000
     14855       121  DOPE      H5R           -10.9472793760      -13.7062883077      -10.2499407827  MEMB      121             0.0000000000
     14856       121  DOPE      H5S           -11.6538468886      -12.2156898784      -10.8418252201  MEMB      121             0.0000000000
     14857       121  DOPE      C26            -9.5105552818      -12.3511226522      -11.1802663914  MEMB      121             0.0000000000
     14858       121  DOPE      H6R            -9.5211177694      -11.3074537188      -11.5345224521  MEMB      121             0.0000000000
     14859       121  DOPE      H6S            -8.8673969257      -12.8894447155      -11.8956471771  MEMB      121             0.0000000000
     14860       121  DOPE      C27            -8.8650422169      -12.3363763844       -9.7945449940  MEMB      121             0.0000000000
     14861       121  DOPE      H7R            -8.2240363144      -13.2237302641       -9.7661266141  MEMB      121             0.0000000000
     14862       121  DOPE      H7S            -9.6899921463      -12.4523664896       -9.0686165387  MEMB      121             0.0000000000
     14863       121  DOPE      C28            -7.8825594996      -11.2403425437       -9.3675082424  MEMB      121             0.0000000000
     14864       121  DOPE      H8R            -7.3457658605      -10.8897565230      -10.2524658030  MEMB      121             0.0000000000
     14865       121  DOPE      H8S            -7.1227635343      -11.7159250477       -8.7015106476  MEMB      121             0.0000000000
     14866       121  DOPE      C29            -8.4562381182      -10.0902151519       -8.6138975018  MEMB      121             0.0000000000
     14867       121  DOPE      H9R            -8.2402456974       -9.0893027759       -9.0201785913  MEMB      121             0.0000000000
     14868       121  DOPE      C210           -9.1708653331      -10.1827039985       -7.4899445495  MEMB      121             0.0000000000
     14869       121  DOPE      H10R           -9.5324944801       -9.2279155972       -7.0848602828  MEMB      121             0.0000000000
     14870       121  DOPE      C211           -9.5936787493      -11.4028702091       -6.6906562383  MEMB      121             0.0000000000
     14871       121  DOPE      H11R           -9.0632591344      -11.4063181364       -5.7178640718  MEMB      121             0.0000000000
     14872       121  DOPE      H11S           -9.3294370999      -12.3766310262       -7.1508424982  MEMB      121             0.0000000000
     14873       121  DOPE      C212          -11.1109468453      -11.3743164007       -6.4037383713  MEMB      121             0.0000000000
     14874       121  DOPE      H12R          -11.3578839763      -12.1945081183       -5.6913055864  MEMB      121             0.0000000000
     14875       121  DOPE      H12S          -11.6807159967      -11.5774049535       -7.3384771790  MEMB      121             0.0000000000
     14876       121  DOPE      C213          -11.5824159514      -10.0322620452       -5.8167591445  MEMB      121             0.0000000000
     14877       121  DOPE      H13R          -12.6287294159      -10.0982872595       -5.4533404331  MEMB      121             0.0000000000
     14878       121  DOPE      H13S          -11.6080617835       -9.2731087245       -6.6185053120  MEMB      121             0.0000000000
     14879       121  DOPE      C214          -10.6527380610       -9.4709277367       -4.7344142609  MEMB      121             0.0000000000
     14880       121  DOPE      H14R          -10.8995611980       -8.4038576097       -4.6157939098  MEMB      121             0.0000000000
     14881       121  DOPE      H14S           -9.5899372267       -9.4228779800       -5.0505844670  MEMB      121             0.0000000000
     14882       121  DOPE      C215          -10.6347879948      -10.3093527209       -3.4578964974  MEMB      121             0.0000000000
     14883       121  DOPE      H15R          -10.1170222069       -9.7855733687       -2.6246148387  MEMB      121             0.0000000000
     14884       121  DOPE      H15S          -10.0175109166      -11.1876468574       -3.7327280125  MEMB      121             0.0000000000
     14885       121  DOPE      C216          -11.9379611733      -10.9335373671       -2.9610811689  MEMB      121             0.0000000000
     14886       121  DOPE      H16R          -12.4870386445      -11.4332413283       -3.7900234105  MEMB      121             0.0000000000
     14887       121  DOPE      H16S          -12.6288554969      -10.2062084949       -2.4915255652  MEMB      121             0.0000000000
     14888       121  DOPE      C217          -11.5490184795      -12.0130772675       -1.9633804058  MEMB      121             0.0000000000
     14889       121  DOPE      H17R          -10.7773991214      -11.6294707631       -1.2584373446  MEMB      121             0.0000000000
     14890       121  DOPE      H17S          -11.0919781398      -12.8349026207       -2.5648644626  MEMB      121             0.0000000000
     14891       121  DOPE      C218          -12.7226017379      -12.5572879547       -1.1936822157  MEMB      121             0.0000000000
     14892       121  DOPE      H18R          -13.6349721262      -12.4963065809       -1.8269440882  MEMB      121             0.0000000000
     14893       121  DOPE      H18S          -12.9164888986      -11.9903186519       -0.2685764563  MEMB      121             0.0000000000
     14894       121  DOPE      H18T          -12.5155422016      -13.6158045858       -0.9158211326  MEMB      121             0.0000000000
     14895       121  DOPE      C33           -16.8587733506      -11.9967666754      -12.3012431290  MEMB      121             0.0000000000
     14896       121  DOPE      H3X           -17.0085338322      -11.4460977527      -11.3624634178  MEMB      121             0.0000000000
     14897       121  DOPE      H3Y           -16.0294887962      -11.4444331740      -12.7685210078  MEMB      121             0.0000000000
     14898       121  DOPE      C34           -16.4038350775      -13.4235068906      -11.9158868760  MEMB      121             0.0000000000
     14899       121  DOPE      H4X           -16.6082637520      -14.1382388518      -12.7373343697  MEMB      121             0.0000000000
     14900       121  DOPE      H4Y           -15.3097171916      -13.3885345960      -11.7930728174  MEMB      121             0.0000000000
     14901       121  DOPE      C35           -16.8880715523      -13.9814991906      -10.5606521349  MEMB      121             0.0000000000
     14902       121  DOPE      H5X           -16.7460479924      -15.0856700272      -10.5502010960  MEMB      121             0.0000000000
     14903       121  DOPE      H5Y           -17.9783152045      -13.7766629516      -10.4659625655  MEMB      121             0.0000000000
     14904       121  DOPE      C36           -16.1690362275      -13.4408527637       -9.3105148432  MEMB      121             0.0000000000
     14905       121  DOPE      H6X           -16.7193338765      -13.8202530256       -8.4194569281  MEMB      121             0.0000000000
     14906       121  DOPE      H6Y           -16.2135973557      -12.3325199749       -9.3143299385  MEMB      121             0.0000000000
     14907       121  DOPE      C37           -14.6859348188      -13.7679792493       -9.0805064757  MEMB      121             0.0000000000
     14908       121  DOPE      H7X           -14.0736736960      -13.3514001632       -9.9060690531  MEMB      121             0.0000000000
     14909       121  DOPE      H7Y           -14.4124517791      -13.1924872996       -8.1586510300  MEMB      121             0.0000000000
     14910       121  DOPE      C38           -14.3538311895      -15.2493956882       -8.8391879132  MEMB      121             0.0000000000
     14911       121  DOPE      H8X           -14.4520247069      -15.8226081473       -9.7867976760  MEMB      121             0.0000000000
     14912       121  DOPE      H8Y           -15.0783211856      -15.6871294795       -8.1177162450  MEMB      121             0.0000000000
     14913       121  DOPE      C39           -12.9361255919      -15.2769329725       -8.3215795806  MEMB      121             0.0000000000
     14914       121  DOPE      H9X           -12.1918274976      -14.9038313953       -9.0395327402  MEMB      121             0.0000000000
     14915       121  DOPE      C310          -12.5088222320      -15.6755562045       -7.1107993117  MEMB      121             0.0000000000
     14916       121  DOPE      H10X          -11.4408508726      -15.5420007933       -6.8763982760  MEMB      121             0.0000000000
     14917       121  DOPE      C311          -13.3463052363      -16.2018626542       -5.9673008952  MEMB      121             0.0000000000
     14918       121  DOPE      H11X          -14.4298083682      -15.9757821750       -6.0839278188  MEMB      121             0.0000000000
     14919       121  DOPE      H11Y          -13.2591763472      -17.3113594668       -5.9540364396  MEMB      121             0.0000000000
     14920       121  DOPE      C312          -12.8864940690      -15.6966207148       -4.5831582422  MEMB      121             0.0000000000
     14921       121  DOPE      H12X          -11.7741057113      -15.6315922703       -4.5614892311  MEMB      121             0.0000000000
     14922       121  DOPE      H12Y          -13.1739078012      -16.4428806280       -3.8120295262  MEMB      121             0.0000000000
     14923       121  DOPE      C313          -13.4709496608      -14.3303529436       -4.1915690400  MEMB      121             0.0000000000
     14924       121  DOPE      H13X          -12.7256998035      -13.8238695481       -3.5493650762  MEMB      121             0.0000000000
     14925       121  DOPE      H13Y          -13.5889883329      -13.7079786468       -5.1064880618  MEMB      121             0.0000000000
     14926       121  DOPE      C314          -14.8141663518      -14.3728197616       -3.4354859279  MEMB      121             0.0000000000
     14927       121  DOPE      H14X          -15.5658415607      -14.8933612871       -4.0688503955  MEMB      121             0.0000000000
     14928       121  DOPE      H14Y          -15.1652913152      -13.3225578297       -3.3026142526  MEMB      121             0.0000000000
     14929       121  DOPE      C315          -14.7895611463      -15.0379096092       -2.0486285240  MEMB      121             0.0000000000
     14930       121  DOPE      H15X          -14.2129822458      -14.4644062059       -1.3148972290  MEMB      121             0.0000000000
     14931       121  DOPE      H15Y          -14.2857207489      -16.0172632862       -2.0681272655  MEMB      121             0.0000000000
     14932       121  DOPE      C316          -16.1863579698      -15.1191142226       -1.4466857852  MEMB      121             0.0000000000
     14933       121  DOPE      H16X          -16.8875625190      -15.6782850724       -2.0981249903  MEMB      121             0.0000000000
     14934       121  DOPE      H16Y          -16.5621982763      -14.0751597530       -1.3953584964  MEMB      121             0.0000000000
     14935       121  DOPE      C317          -16.1962775546      -15.6813967515       -0.0235794675  MEMB      121             0.0000000000
     14936       121  DOPE      H17X          -15.4423635035      -15.2056547442        0.6256152183  MEMB      121             0.0000000000
     14937       121  DOPE      H17Y          -17.1081767898      -15.3190720603        0.4033860000  MEMB      121             0.0000000000
     14938       121  DOPE      C318          -16.2983538273      -17.1982420395        0.1356075383  MEMB      121             0.0000000000
     14939       121  DOPE      H18X          -16.5985432911      -17.4817098429        1.1612255049  MEMB      121             0.0000000000
     14940       121  DOPE      H18Y          -17.0793521515      -17.6172835818       -0.5314464593  MEMB      121             0.0000000000
     14941       121  DOPE      H18Z          -15.3094503548      -17.6502740616       -0.0800503921  MEMB      121             0.0000000000
     14942       122  DOPE      N              14.9076128398       16.0875679590      -21.4432487009  MEMB      122             0.0000000000
     14943       122  DOPE      HN1            14.7422337378       16.3715073591      -22.4491062968  MEMB      122             0.0000000000
     14944       122  DOPE      HN2            14.3090511105       16.6277260113      -20.7872330238  MEMB      122             0.0000000000
     14945       122  DOPE      HN3            15.9010042045       16.2262084071      -21.2081145911  MEMB      122             0.0000000000
     14946       122  DOPE      C12            14.5892383489       14.6467741943      -21.2714753667  MEMB      122             0.0000000000
     14947       122  DOPE      H12A           15.2680300432       14.0635033472      -21.9273085149  MEMB      122             0.0000000000
     14948       122  DOPE      H12B           13.5371254720       14.4787870907      -21.5856843585  MEMB      122             0.0000000000
     14949       122  DOPE      C11            14.7619792078       14.2360058304      -19.8127016544  MEMB      122             0.0000000000
     14950       122  DOPE      H11A           15.7601775663       14.5060376917      -19.4081908711  MEMB      122             0.0000000000
     14951       122  DOPE      H11B           14.7397606966       13.1149854431      -19.8297935278  MEMB      122             0.0000000000
     14952       122  DOPE      P              12.8198366443       13.8631789625      -18.1511900499  MEMB      122             0.0000000000
     14953       122  DOPE      O13            12.6547008445       12.6118835646      -18.9303232486  MEMB      122             0.0000000000
     14954       122  DOPE      O14            11.6246726441       14.5569552482      -17.6380086554  MEMB      122             0.0000000000
     14955       122  DOPE      O11            13.8689113625       13.6692790419      -16.9866202428  MEMB      122             0.0000000000
     14956       122  DOPE      O12            13.7235691657       14.8462811921      -19.0248636035  MEMB      122             0.0000000000
     14957       122  DOPE      C1             14.0237609070       14.7982330788      -16.1018242570  MEMB      122             0.0000000000
     14958       122  DOPE      HA             13.0605194098       15.3383218894      -15.9035178783  MEMB      122             0.0000000000
     14959       122  DOPE      HB             14.7382169857       15.5394092303      -16.5209830219  MEMB      122             0.0000000000
     14960       122  DOPE      C2             14.4820507963       14.3299989680      -14.7072525916  MEMB      122             0.0000000000
     14961       122  DOPE      HS             15.3633854323       13.6616585717      -14.8504788209  MEMB      122             0.0000000000
     14962       122  DOPE      O21            13.3463447716       13.6513348862      -14.1489967348  MEMB      122             0.0000000000
     14963       122  DOPE      C21            13.6239900155       12.7080301753      -13.2855803922  MEMB      122             0.0000000000
     14964       122  DOPE      O22            14.7375522803       12.3946436725      -12.9077495772  MEMB      122             0.0000000000
     14965       122  DOPE      C22            12.3011016908       12.1977779898      -12.7087871553  MEMB      122             0.0000000000
     14966       122  DOPE      H2R            11.7466304073       11.7010235478      -13.5298918280  MEMB      122             0.0000000000
     14967       122  DOPE      H2S            11.7375929557       13.1014711259      -12.3878122946  MEMB      122             0.0000000000
     14968       122  DOPE      C3             14.8890689372       15.5658730696      -13.8398290417  MEMB      122             0.0000000000
     14969       122  DOPE      HX             14.0090672380       16.2503382650      -13.8064692603  MEMB      122             0.0000000000
     14970       122  DOPE      HY             15.6860274048       16.1065240519      -14.3970590627  MEMB      122             0.0000000000
     14971       122  DOPE      O31            15.4047737929       15.2365070019      -12.5244318720  MEMB      122             0.0000000000
     14972       122  DOPE      C31            14.4777662743       15.1707424110      -11.5729752681  MEMB      122             0.0000000000
     14973       122  DOPE      O32            13.2971165117       15.4290993542      -11.7105666212  MEMB      122             0.0000000000
     14974       122  DOPE      C32            15.0585993166       14.6755376985      -10.2435434834  MEMB      122             0.0000000000
     14975       122  DOPE      H2X            14.4792164660       13.7679275141       -9.9717319586  MEMB      122             0.0000000000
     14976       122  DOPE      H2Y            16.1099529101       14.3823027572      -10.3934561791  MEMB      122             0.0000000000
     14977       122  DOPE      C23            12.4398782786       11.2487757426      -11.4921832065  MEMB      122             0.0000000000
     14978       122  DOPE      H3R            13.0725324901       11.7265138013      -10.7107753810  MEMB      122             0.0000000000
     14979       122  DOPE      H3S            12.9447446017       10.3121434942      -11.8137930984  MEMB      122             0.0000000000
     14980       122  DOPE      C24            11.0627862562       10.9172361117      -10.8903354165  MEMB      122             0.0000000000
     14981       122  DOPE      H4R            10.4894252918       10.3450294954      -11.6528990347  MEMB      122             0.0000000000
     14982       122  DOPE      H4S            10.5116593276       11.8663150018      -10.7012289693  MEMB      122             0.0000000000
     14983       122  DOPE      C25            11.0880985377       10.1104953273       -9.5815296549  MEMB      122             0.0000000000
     14984       122  DOPE      H5R            11.7745685686        9.2421808463       -9.6568224863  MEMB      122             0.0000000000
     14985       122  DOPE      H5S            10.0577056809        9.7254670489       -9.3997422160  MEMB      122             0.0000000000
     14986       122  DOPE      C26            11.4780149971       10.9502984326       -8.3690097220  MEMB      122             0.0000000000
     14987       122  DOPE      H6R            10.9360649536       11.9061787002       -8.4636671511  MEMB      122             0.0000000000
     14988       122  DOPE      H6S            12.5594591138       11.1850006462       -8.4122246413  MEMB      122             0.0000000000
     14989       122  DOPE      C27            11.1285863235       10.3068017821       -7.0202539467  MEMB      122             0.0000000000
     14990       122  DOPE      H7R            11.4928817871        9.2629919405       -7.0131644927  MEMB      122             0.0000000000
     14991       122  DOPE      H7S            10.0216711679       10.2748923347       -6.9116283333  MEMB      122             0.0000000000
     14992       122  DOPE      C28            11.7509146098       11.0841597759       -5.8478599653  MEMB      122             0.0000000000
     14993       122  DOPE      H8R            11.3817835885       12.1228589872       -5.9516122173  MEMB      122             0.0000000000
     14994       122  DOPE      H8S            12.8512843862       11.1318941094       -5.9631697074  MEMB      122             0.0000000000
     14995       122  DOPE      C29            11.3695925621       10.6044855581       -4.4790515975  MEMB      122             0.0000000000
     14996       122  DOPE      H9R            10.3111381465       10.7898193680       -4.2401698364  MEMB      122             0.0000000000
     14997       122  DOPE      C210           12.1567418130       10.0992183934       -3.5084892818  MEMB      122             0.0000000000
     14998       122  DOPE      H10R           11.7048991276        9.9903929466       -2.5181619528  MEMB      122             0.0000000000
     14999       122  DOPE      C211           13.6465169817        9.8792007742       -3.5496583482  MEMB      122             0.0000000000
     15000       122  DOPE      H11R           14.1472865646       10.8510422452       -3.6381018138  MEMB      122             0.0000000000
     15001       122  DOPE      H11S           13.8303907972        9.4079887392       -4.5169440213  MEMB      122             0.0000000000
     15002       122  DOPE      C212           14.4622965844        9.0603665414       -2.4986800156  MEMB      122             0.0000000000
     15003       122  DOPE      H12R           15.3577349614        8.7130336642       -3.0608639843  MEMB      122             0.0000000000
     15004       122  DOPE      H12S           13.9832975678        8.1302330134       -2.1684096056  MEMB      122             0.0000000000
     15005       122  DOPE      C213           14.9749074365        9.7905547776       -1.2451460629  MEMB      122             0.0000000000
     15006       122  DOPE      H13R           14.2520716678        9.6542527921       -0.4092677595  MEMB      122             0.0000000000
     15007       122  DOPE      H13S           15.0645151264       10.8599882515       -1.4039487431  MEMB      122             0.0000000000
     15008       122  DOPE      C214           16.3837173898        9.3603503883       -0.8607654149  MEMB      122             0.0000000000
     15009       122  DOPE      H14R           16.8187444174        8.7999794278       -1.6619825384  MEMB      122             0.0000000000
     15010       122  DOPE      H14S           16.2894930272        8.6991757665        0.0354389398  MEMB      122             0.0000000000
     15011       122  DOPE      C215           17.5063460391       10.3829469243       -0.5701393543  MEMB      122             0.0000000000
     15012       122  DOPE      H15R           18.3670527202        9.6849196339       -0.3769754724  MEMB      122             0.0000000000
     15013       122  DOPE      H15S           17.0838762239       10.7001380010        0.3723328019  MEMB      122             0.0000000000
     15014       122  DOPE      C216           18.0079451485       11.5775465454       -1.5230237443  MEMB      122             0.0000000000
     15015       122  DOPE      H16R           17.7314561295       11.4180893551       -2.5754491278  MEMB      122             0.0000000000
     15016       122  DOPE      H16S           18.9529452091       11.0245226899       -1.4556200448  MEMB      122             0.0000000000
     15017       122  DOPE      C217           19.0363351973       12.8426758219       -1.3559999431  MEMB      122             0.0000000000
     15018       122  DOPE      H17R           19.3600066536       12.9636765253       -2.4142130197  MEMB      122             0.0000000000
     15019       122  DOPE      H17S           19.9138812777       12.4960409417       -0.7666842789  MEMB      122             0.0000000000
     15020       122  DOPE      C218           18.9093029477       14.3331161626       -0.8818892467  MEMB      122             0.0000000000
     15021       122  DOPE      H18R           18.1471980328       14.4937807562       -0.1040881556  MEMB      122             0.0000000000
     15022       122  DOPE      H18S           18.6638553091       15.0144920602       -1.7241625993  MEMB      122             0.0000000000
     15023       122  DOPE      H18T           19.8802849627       14.6942834449       -0.4713443600  MEMB      122             0.0000000000
     15024       122  DOPE      C33            14.9057155534       15.7524524376       -9.1402102379  MEMB      122             0.0000000000
     15025       122  DOPE      H3X            13.8773897182       16.1591075488       -9.1642046577  MEMB      122             0.0000000000
     15026       122  DOPE      H3Y            15.5550767941       16.6145868526       -9.4014566623  MEMB      122             0.0000000000
     15027       122  DOPE      C34            15.2632526168       15.3166563523       -7.6996283557  MEMB      122             0.0000000000
     15028       122  DOPE      H4X            16.3393679201       15.0354107509       -7.6774369828  MEMB      122             0.0000000000
     15029       122  DOPE      H4Y            15.1436724289       16.1991514764       -7.0323005765  MEMB      122             0.0000000000
     15030       122  DOPE      C35            14.4575976571       14.1551011743       -7.0910487265  MEMB      122             0.0000000000
     15031       122  DOPE      H5X            14.9755695539       13.8285382457       -6.1563213058  MEMB      122             0.0000000000
     15032       122  DOPE      H5Y            14.4599203420       13.2870982604       -7.7836740535  MEMB      122             0.0000000000
     15033       122  DOPE      C36            13.0076133714       14.5043321750       -6.7122770307  MEMB      122             0.0000000000
     15034       122  DOPE      H6X            12.9737246615       15.4159407583       -6.0784783419  MEMB      122             0.0000000000
     15035       122  DOPE      H6Y            12.6273096537       13.6760639162       -6.0804959075  MEMB      122             0.0000000000
     15036       122  DOPE      C37            12.0913552463       14.6623571068       -7.9355351588  MEMB      122             0.0000000000
     15037       122  DOPE      H7X            12.1887826906       15.6918211363       -8.3358290091  MEMB      122             0.0000000000
     15038       122  DOPE      H7Y            12.4307994751       13.9469301551       -8.7210566174  MEMB      122             0.0000000000
     15039       122  DOPE      C38            10.5932147275       14.4222053133       -7.7074895473  MEMB      122             0.0000000000
     15040       122  DOPE      H8X            10.4466708957       13.3934922632       -7.3355274550  MEMB      122             0.0000000000
     15041       122  DOPE      H8Y            10.0910190581       14.4884090086       -8.7003113158  MEMB      122             0.0000000000
     15042       122  DOPE      C39             9.9542348658       15.3875752996       -6.7602582325  MEMB      122             0.0000000000
     15043       122  DOPE      H9X            10.4714953785       16.3503434736       -6.6327617841  MEMB      122             0.0000000000
     15044       122  DOPE      C310            8.8802234991       15.0929258932       -6.0140725710  MEMB      122             0.0000000000
     15045       122  DOPE      H10X            8.5092716168       15.8460572499       -5.3102404986  MEMB      122             0.0000000000
     15046       122  DOPE      C311            8.1343198432       13.7769282629       -5.9829248823  MEMB      122             0.0000000000
     15047       122  DOPE      H11X            7.0371290444       13.9534050783       -5.9582977483  MEMB      122             0.0000000000
     15048       122  DOPE      H11Y            8.3418572898       13.1597555646       -6.8841165767  MEMB      122             0.0000000000
     15049       122  DOPE      C312            8.5388295747       12.9653062955       -4.7348802331  MEMB      122             0.0000000000
     15050       122  DOPE      H12X            9.6409728341       12.8270981003       -4.7721549439  MEMB      122             0.0000000000
     15051       122  DOPE      H12Y            8.0649298869       11.9617507221       -4.7420083336  MEMB      122             0.0000000000
     15052       122  DOPE      C313            8.1789042853       13.7088991482       -3.4451452083  MEMB      122             0.0000000000
     15053       122  DOPE      H13X            8.6946396876       14.6772275142       -3.5281618837  MEMB      122             0.0000000000
     15054       122  DOPE      H13Y            7.0837814710       13.8869383834       -3.3899928138  MEMB      122             0.0000000000
     15055       122  DOPE      C314            8.6827632739       13.1285567518       -2.1297718456  MEMB      122             0.0000000000
     15056       122  DOPE      H14X            8.1878319941       12.1429277042       -1.9693701069  MEMB      122             0.0000000000
     15057       122  DOPE      H14Y            8.4001056401       13.7697666986       -1.2690959910  MEMB      122             0.0000000000
     15058       122  DOPE      C315           10.1895911906       12.9057103403       -2.0787930585  MEMB      122             0.0000000000
     15059       122  DOPE      H15X           10.5269560744       12.3324990861       -2.9478243645  MEMB      122             0.0000000000
     15060       122  DOPE      H15Y           10.2565089793       12.2460719024       -1.2059571711  MEMB      122             0.0000000000
     15061       122  DOPE      C316           11.2000943068       14.0484620622       -1.8832763743  MEMB      122             0.0000000000
     15062       122  DOPE      H16X           10.8140117243       14.9359728926       -1.3554217681  MEMB      122             0.0000000000
     15063       122  DOPE      H16Y           11.6129690361       14.3590939137       -2.8706270807  MEMB      122             0.0000000000
     15064       122  DOPE      C317           12.3615757396       13.5448093014       -1.0426652606  MEMB      122             0.0000000000
     15065       122  DOPE      H17X           13.2486688522       14.1707024740       -1.1993805239  MEMB      122             0.0000000000
     15066       122  DOPE      H17Y           12.1203240421       13.6018262877        0.0292774340  MEMB      122             0.0000000000
     15067       122  DOPE      C318           12.7729499235       12.1524836193       -1.3952232022  MEMB      122             0.0000000000
     15068       122  DOPE      H18X           13.5509477235       11.8158748164       -0.7370866631  MEMB      122             0.0000000000
     15069       122  DOPE      H18Y           12.0325069693       11.3661216028       -1.2109435542  MEMB      122             0.0000000000
     15070       122  DOPE      H18Z           13.1204792207       12.1348155130       -2.4407647103  MEMB      122             0.0000000000
     15071       123  DOPE      N             -19.1275687738       -2.2916127770      -17.4549270771  MEMB      123             0.0000000000
     15072       123  DOPE      HN1           -18.7789520956       -2.3359949217      -16.4777672674  MEMB      123             0.0000000000
     15073       123  DOPE      HN2           -20.1790334259       -2.2753258459      -17.4698472557  MEMB      123             0.0000000000
     15074       123  DOPE      HN3           -18.7723599128       -3.1142733359      -17.9766791579  MEMB      123             0.0000000000
     15075       123  DOPE      C12           -18.7141070293       -1.0555133152      -18.1663756149  MEMB      123             0.0000000000
     15076       123  DOPE      H12A          -17.6193924470       -1.0264421114      -18.2973960041  MEMB      123             0.0000000000
     15077       123  DOPE      H12B          -19.0850219800       -0.2209887468      -17.5543702399  MEMB      123             0.0000000000
     15078       123  DOPE      C11           -19.5053661277       -0.9529460442      -19.4405870352  MEMB      123             0.0000000000
     15079       123  DOPE      H11A          -19.3560023525       -1.8110479864      -20.1255487728  MEMB      123             0.0000000000
     15080       123  DOPE      H11B          -19.1297542556       -0.0442228314      -19.9888231975  MEMB      123             0.0000000000
     15081       123  DOPE      P             -21.7146351787        0.2375487034      -19.7127498014  MEMB      123             0.0000000000
     15082       123  DOPE      O13           -23.0448774930        0.2637277806      -19.1210453042  MEMB      123             0.0000000000
     15083       123  DOPE      O14           -21.6096088113       -0.0018912394      -21.1624996243  MEMB      123             0.0000000000
     15084       123  DOPE      O11           -20.8979346649        1.5304599873      -19.3848926053  MEMB      123             0.0000000000
     15085       123  DOPE      O12           -20.8743529528       -0.8997880001      -19.0131339827  MEMB      123             0.0000000000
     15086       123  DOPE      C1            -21.4230783121        2.7928153792      -19.7893639668  MEMB      123             0.0000000000
     15087       123  DOPE      HA            -22.5436163450        2.8023470791      -19.8570842431  MEMB      123             0.0000000000
     15088       123  DOPE      HB            -21.0141053625        3.0618567372      -20.7909077963  MEMB      123             0.0000000000
     15089       123  DOPE      C2            -21.0301102552        3.8412337334      -18.7274646429  MEMB      123             0.0000000000
     15090       123  DOPE      HS            -21.2536116262        4.8418064971      -19.1255532820  MEMB      123             0.0000000000
     15091       123  DOPE      O21           -19.6045295755        3.7126583140      -18.5008150487  MEMB      123             0.0000000000
     15092       123  DOPE      C21           -19.0468974996        3.6177519374      -17.3150778491  MEMB      123             0.0000000000
     15093       123  DOPE      O22           -19.4972881691        3.9728513923      -16.2429608923  MEMB      123             0.0000000000
     15094       123  DOPE      C22           -17.7034161784        2.9010547660      -17.4513700844  MEMB      123             0.0000000000
     15095       123  DOPE      H2R           -16.8858938079        3.5678185426      -17.1316026983  MEMB      123             0.0000000000
     15096       123  DOPE      H2S           -17.5786034373        2.6086769511      -18.5164491699  MEMB      123             0.0000000000
     15097       123  DOPE      C3            -21.9239007450        3.6077793487      -17.4616604982  MEMB      123             0.0000000000
     15098       123  DOPE      HX            -22.9906577530        3.6258237902      -17.7939957591  MEMB      123             0.0000000000
     15099       123  DOPE      HY            -21.7732518700        4.4914740654      -16.7945926280  MEMB      123             0.0000000000
     15100       123  DOPE      O31           -21.6376516009        2.3457064315      -16.8064225052  MEMB      123             0.0000000000
     15101       123  DOPE      C31           -22.0671549783        2.3389978023      -15.5457159246  MEMB      123             0.0000000000
     15102       123  DOPE      O32           -22.6950211997        3.2406033496      -15.0257388883  MEMB      123             0.0000000000
     15103       123  DOPE      C32           -21.6475403587        1.0503258210      -14.8431751724  MEMB      123             0.0000000000
     15104       123  DOPE      H2X           -21.8806649148        0.2164188172      -15.5443119529  MEMB      123             0.0000000000
     15105       123  DOPE      H2Y           -20.5597302039        1.0692807920      -14.6462498987  MEMB      123             0.0000000000
     15106       123  DOPE      C23           -17.6730163816        1.6774552064      -16.5252119046  MEMB      123             0.0000000000
     15107       123  DOPE      H3R           -16.9109687050        0.9511567611      -16.8943762857  MEMB      123             0.0000000000
     15108       123  DOPE      H3S           -18.6896259932        1.2413966926      -16.5328336394  MEMB      123             0.0000000000
     15109       123  DOPE      C24           -17.4116500228        1.9590645944      -15.0435533764  MEMB      123             0.0000000000
     15110       123  DOPE      H4R           -18.2045665931        2.6333623732      -14.6451101626  MEMB      123             0.0000000000
     15111       123  DOPE      H4S           -16.4368447265        2.4723258013      -14.9193187317  MEMB      123             0.0000000000
     15112       123  DOPE      C25           -17.4445566857        0.6316021389      -14.2798865507  MEMB      123             0.0000000000
     15113       123  DOPE      H5R           -16.7487214260       -0.0599911781      -14.8123891513  MEMB      123             0.0000000000
     15114       123  DOPE      H5S           -18.4623906313        0.1872243524      -14.3354640544  MEMB      123             0.0000000000
     15115       123  DOPE      C26           -16.9680632327        0.7070629236      -12.8261383211  MEMB      123             0.0000000000
     15116       123  DOPE      H6R           -16.4394614618        1.6640426912      -12.6382629751  MEMB      123             0.0000000000
     15117       123  DOPE      H6S           -16.2079551619       -0.0994325144      -12.7084757932  MEMB      123             0.0000000000
     15118       123  DOPE      C27           -18.0423675429        0.4626500895      -11.7523525764  MEMB      123             0.0000000000
     15119       123  DOPE      H7R           -18.8159608226       -0.2286778121      -12.1559634145  MEMB      123             0.0000000000
     15120       123  DOPE      H7S           -18.5418013388        1.4179197646      -11.4862824265  MEMB      123             0.0000000000
     15121       123  DOPE      C28           -17.3971660792       -0.2194444297      -10.5254716980  MEMB      123             0.0000000000
     15122       123  DOPE      H8R           -16.4964739650        0.3348394390      -10.2066641657  MEMB      123             0.0000000000
     15123       123  DOPE      H8S           -16.9881615539       -1.1495503768      -10.9551015592  MEMB      123             0.0000000000
     15124       123  DOPE      C29           -18.3346799367       -0.5753744160       -9.3938682850  MEMB      123             0.0000000000
     15125       123  DOPE      H9R           -19.3283447426       -0.8882056840       -9.7484472827  MEMB      123             0.0000000000
     15126       123  DOPE      C210          -18.1175154067       -0.5852117002       -8.0586200465  MEMB      123             0.0000000000
     15127       123  DOPE      H10R          -18.9517501742       -0.8997644882       -7.4143866242  MEMB      123             0.0000000000
     15128       123  DOPE      C211          -16.8756024801       -0.2414906905       -7.2686331559  MEMB      123             0.0000000000
     15129       123  DOPE      H11R          -17.1355671520        0.5438059130       -6.5324003516  MEMB      123             0.0000000000
     15130       123  DOPE      H11S          -16.0879862792        0.2000056612       -7.9200466460  MEMB      123             0.0000000000
     15131       123  DOPE      C212          -16.2026151808       -1.3950951726       -6.4790684506  MEMB      123             0.0000000000
     15132       123  DOPE      H12R          -15.4757844049       -0.9600037200       -5.7607121834  MEMB      123             0.0000000000
     15133       123  DOPE      H12S          -15.6048155100       -1.9601551515       -7.2281147345  MEMB      123             0.0000000000
     15134       123  DOPE      C213          -17.0975626330       -2.4094653170       -5.7284730329  MEMB      123             0.0000000000
     15135       123  DOPE      H13R          -16.4584287189       -3.2537288077       -5.3848419163  MEMB      123             0.0000000000
     15136       123  DOPE      H13S          -17.8317380368       -2.8394206196       -6.4449824265  MEMB      123             0.0000000000
     15137       123  DOPE      C214          -17.8941865732       -1.8933491342       -4.5249564247  MEMB      123             0.0000000000
     15138       123  DOPE      H14R          -18.7100656341       -2.6279095413       -4.3261888940  MEMB      123             0.0000000000
     15139       123  DOPE      H14S          -18.3879446572       -0.9431408133       -4.8121884240  MEMB      123             0.0000000000
     15140       123  DOPE      C215          -17.1034904440       -1.7574888521       -3.2090826312  MEMB      123             0.0000000000
     15141       123  DOPE      H15R          -16.1470734096       -1.2120753934       -3.3703399750  MEMB      123             0.0000000000
     15142       123  DOPE      H15S          -16.8503371229       -2.7766359701       -2.8363074687  MEMB      123             0.0000000000
     15143       123  DOPE      C216          -17.9290285990       -1.0095591299       -2.1448295294  MEMB      123             0.0000000000
     15144       123  DOPE      H16R          -17.5124636476       -1.1792736003       -1.1297643917  MEMB      123             0.0000000000
     15145       123  DOPE      H16S          -18.9714061688       -1.3998962886       -2.1675984563  MEMB      123             0.0000000000
     15146       123  DOPE      C217          -17.9227052821        0.4936432223       -2.4447201089  MEMB      123             0.0000000000
     15147       123  DOPE      H17R          -18.1223682040        0.5799087075       -3.5282675929  MEMB      123             0.0000000000
     15148       123  DOPE      H17S          -16.8995839569        0.8859063518       -2.2430911963  MEMB      123             0.0000000000
     15149       123  DOPE      C218          -18.9359745454        1.3993781146       -1.7551689372  MEMB      123             0.0000000000
     15150       123  DOPE      H18R          -19.0840686451        2.3304994590       -2.3428940103  MEMB      123             0.0000000000
     15151       123  DOPE      H18S          -18.5590565643        1.6884889901       -0.7505962139  MEMB      123             0.0000000000
     15152       123  DOPE      H18T          -19.9274174516        0.9153445008       -1.6697939264  MEMB      123             0.0000000000
     15153       123  DOPE      C33           -22.4640332717        0.8687176043      -13.5396375455  MEMB      123             0.0000000000
     15154       123  DOPE      H3X           -22.4084290627       -0.2091781409      -13.2636808207  MEMB      123             0.0000000000
     15155       123  DOPE      H3Y           -23.5243911040        1.1337258640      -13.7692319084  MEMB      123             0.0000000000
     15156       123  DOPE      C34           -22.0570562050        1.6786620478      -12.2922871445  MEMB      123             0.0000000000
     15157       123  DOPE      H4X           -20.9802512037        1.5077746341      -12.0791237821  MEMB      123             0.0000000000
     15158       123  DOPE      H4Y           -22.2036331205        2.7668748284      -12.4792043029  MEMB      123             0.0000000000
     15159       123  DOPE      C35           -22.8979147039        1.2496152349      -11.0682812215  MEMB      123             0.0000000000
     15160       123  DOPE      H5X           -22.8032564418        0.1470862825      -10.9507727884  MEMB      123             0.0000000000
     15161       123  DOPE      H5Y           -23.9695887684        1.4750598042      -11.2726925961  MEMB      123             0.0000000000
     15162       123  DOPE      C36           -22.5035869643        1.9286041591       -9.7441511895  MEMB      123             0.0000000000
     15163       123  DOPE      H6X           -22.7385447573        3.0112447443       -9.8264974632  MEMB      123             0.0000000000
     15164       123  DOPE      H6Y           -21.4051438135        1.8328428688       -9.5955675349  MEMB      123             0.0000000000
     15165       123  DOPE      C37           -23.2331552421        1.3370234227       -8.5213591594  MEMB      123             0.0000000000
     15166       123  DOPE      H7X           -24.3114398395        1.2140447611       -8.7820888397  MEMB      123             0.0000000000
     15167       123  DOPE      H7Y           -22.8315734553        0.3220581087       -8.3076102018  MEMB      123             0.0000000000
     15168       123  DOPE      C38           -23.1706928983        2.1996308553       -7.2364301631  MEMB      123             0.0000000000
     15169       123  DOPE      H8X           -23.7078057038        1.6487598442       -6.4402828007  MEMB      123             0.0000000000
     15170       123  DOPE      H8Y           -23.7796260350        3.1144391996       -7.4132111417  MEMB      123             0.0000000000
     15171       123  DOPE      C39           -21.7945708275        2.6252108933       -6.7795634528  MEMB      123             0.0000000000
     15172       123  DOPE      H9X           -21.1851188413        3.0707731709       -7.5839821805  MEMB      123             0.0000000000
     15173       123  DOPE      C310          -21.1952359316        2.4295616422       -5.5816253493  MEMB      123             0.0000000000
     15174       123  DOPE      H10X          -20.1648097160        2.7792728496       -5.4671499224  MEMB      123             0.0000000000
     15175       123  DOPE      C311          -21.6997077272        1.7215267382       -4.3497423618  MEMB      123             0.0000000000
     15176       123  DOPE      H11X          -22.3959044195        1.0020933990       -4.7684131808  MEMB      123             0.0000000000
     15177       123  DOPE      H11Y          -20.8025723594        1.1683196258       -4.0328970321  MEMB      123             0.0000000000
     15178       123  DOPE      C312          -22.3714042278        2.3993006836       -3.0921239976  MEMB      123             0.0000000000
     15179       123  DOPE      H12X          -23.2383726968        2.9302473480       -3.5243323687  MEMB      123             0.0000000000
     15180       123  DOPE      H12Y          -21.6168349567        3.1338540242       -2.7137983005  MEMB      123             0.0000000000
     15181       123  DOPE      C313          -22.9149959280        1.7217200449       -1.7363198197  MEMB      123             0.0000000000
     15182       123  DOPE      H13X          -22.1616185042        1.3697747923       -1.0164542501  MEMB      123             0.0000000000
     15183       123  DOPE      H13Y          -23.0841160412        2.7663433842       -1.3971853121  MEMB      123             0.0000000000
     15184       123  DOPE      C314          -24.4148532669        1.3422248217       -1.3433120713  MEMB      123             0.0000000000
     15185       123  DOPE      H14X          -25.1442807681        1.5340887401       -2.1478994759  MEMB      123             0.0000000000
     15186       123  DOPE      H14Y          -24.6805814102        2.1151482588       -0.5667595069  MEMB      123             0.0000000000
     15187       123  DOPE      C315          -24.8477052998        0.1434134039       -0.4306835905  MEMB      123             0.0000000000
     15188       123  DOPE      H15X          -25.9139177448        0.4051202230       -0.2452821196  MEMB      123             0.0000000000
     15189       123  DOPE      H15Y          -24.3757476124        0.2533080286        0.5569808794  MEMB      123             0.0000000000
     15190       123  DOPE      C316          -25.0120346477       -1.3427946150       -0.8243138907  MEMB      123             0.0000000000
     15191       123  DOPE      H16X          -24.6995256229       -1.5646310795       -1.8595808731  MEMB      123             0.0000000000
     15192       123  DOPE      H16Y          -26.1121634225       -1.5701039921       -0.7770381283  MEMB      123             0.0000000000
     15193       123  DOPE      C317          -24.4198793646       -2.3316544920        0.1845299182  MEMB      123             0.0000000000
     15194       123  DOPE      H17X          -25.1545002845       -2.3870414711        1.0241296405  MEMB      123             0.0000000000
     15195       123  DOPE      H17Y          -24.4057172921       -3.3375357926       -0.3074023979  MEMB      123             0.0000000000
     15196       123  DOPE      C318          -23.0405862690       -1.9494733758        0.7420410783  MEMB      123             0.0000000000
     15197       123  DOPE      H18X          -22.8711081018       -2.2786562348        1.7810654842  MEMB      123             0.0000000000
     15198       123  DOPE      H18Y          -22.2499310295       -2.3658893879        0.1130470577  MEMB      123             0.0000000000
     15199       123  DOPE      H18Z          -22.8395308619       -0.8661527328        0.7659467649  MEMB      123             0.0000000000
     15200       124  23SM      N              21.0164307832       -2.1667238688      -26.3937587465  MEMB      124             0.0000000000
     15201       124  23SM      C15            19.6708323496       -1.8462981880      -26.9795712995  MEMB      124             0.0000000000
     15202       124  23SM      H15A           19.4086227069       -0.8063357523      -26.7700486499  MEMB      124             0.0000000000
     15203       124  23SM      H15B           18.8805834175       -2.4709908568      -26.5776671454  MEMB      124             0.0000000000
     15204       124  23SM      H15C           19.6593172667       -1.9660811713      -28.0587157291  MEMB      124             0.0000000000
     15205       124  23SM      C14            20.8949436493       -2.1967660243      -24.8960939039  MEMB      124             0.0000000000
     15206       124  23SM      H14A           20.0164473785       -2.7550994982      -24.5841736286  MEMB      124             0.0000000000
     15207       124  23SM      H14B           20.7590463802       -1.1819281849      -24.5265682247  MEMB      124             0.0000000000
     15208       124  23SM      H14C           21.7765407073       -2.6152725674      -24.4199019142  MEMB      124             0.0000000000
     15209       124  23SM      C13            21.4231521254       -3.5266657481      -26.8751706405  MEMB      124             0.0000000000
     15210       124  23SM      H13A           21.3759896208       -3.6100632031      -27.9520299210  MEMB      124             0.0000000000
     15211       124  23SM      H13B           20.7427405674       -4.2740268052      -26.4807890513  MEMB      124             0.0000000000
     15212       124  23SM      H13C           22.4233729045       -3.7597926114      -26.5343779902  MEMB      124             0.0000000000
     15213       124  23SM      C12            21.9721628074       -1.0614155425      -26.8201866738  MEMB      124             0.0000000000
     15214       124  23SM      H12A           21.8032778924       -0.8439230366      -27.8651667229  MEMB      124             0.0000000000
     15215       124  23SM      H12B           22.9856105569       -1.4218561124      -26.7280058985  MEMB      124             0.0000000000
     15216       124  23SM      C11            21.8716082491        0.3068486069      -26.0893363587  MEMB      124             0.0000000000
     15217       124  23SM      H11A           22.5888499497        1.0041771762      -26.5863086871  MEMB      124             0.0000000000
     15218       124  23SM      H11B           22.1851484841        0.2002652421      -25.0243343603  MEMB      124             0.0000000000
     15219       124  23SM      P              20.2142142006        2.3224876112      -25.8046801594  MEMB      124             0.0000000000
     15220       124  23SM      O13            20.9953440190        3.2264431048      -26.6664181666  MEMB      124             0.0000000000
     15221       124  23SM      O14            18.7455263585        2.4854867148      -25.7726969605  MEMB      124             0.0000000000
     15222       124  23SM      O11            20.8025376549        2.4338816974      -24.3137684962  MEMB      124             0.0000000000
     15223       124  23SM      O12            20.5416437425        0.8050719182      -26.1772734264  MEMB      124             0.0000000000
     15224       124  23SM      C1S            19.7650991333        2.2261695357      -23.3398286764  MEMB      124             0.0000000000
     15225       124  23SM      H1S            19.2467012298        1.2676319768      -23.5617834364  MEMB      124             0.0000000000
     15226       124  23SM      H1T            19.0163325124        3.0568419011      -23.3489913386  MEMB      124             0.0000000000
     15227       124  23SM      NF             19.0540938163        1.8615005206      -21.0865750620  MEMB      124             0.0000000000
     15228       124  23SM      HNF            18.6973691012        2.6237787172      -20.5582033850  MEMB      124             0.0000000000
     15229       124  23SM      C2S            20.2439053522        2.0771015299      -21.8782785399  MEMB      124             0.0000000000
     15230       124  23SM      H2S            20.9093059980        1.1874447129      -21.8051567564  MEMB      124             0.0000000000
     15231       124  23SM      C3S            21.0503329901        3.3031915409      -21.4157061517  MEMB      124             0.0000000000
     15232       124  23SM      H3S            20.3689921910        4.1672424963      -21.4955485058  MEMB      124             0.0000000000
     15233       124  23SM      O3             22.2251713254        3.5295149022      -22.1942476631  MEMB      124             0.0000000000
     15234       124  23SM      HO3            21.9704196631        3.2299351381      -23.0804543955  MEMB      124             0.0000000000
     15235       124  23SM      C4S            21.4373692055        3.1476365336      -19.9605399580  MEMB      124             0.0000000000
     15236       124  23SM      H4S            21.8906609928        2.1868862324      -19.6993335145  MEMB      124             0.0000000000
     15237       124  23SM      C5S            21.2194739451        4.0874777109      -19.0159938707  MEMB      124             0.0000000000
     15238       124  23SM      H5S            20.7754921611        5.0380846843      -19.3585709116  MEMB      124             0.0000000000
     15239       124  23SM      C6S            21.5703610882        4.0164971368      -17.5452364533  MEMB      124             0.0000000000
     15240       124  23SM      H6S            20.6332288977        3.9940620415      -16.9451197864  MEMB      124             0.0000000000
     15241       124  23SM      H6T            22.1344786639        4.9354074001      -17.2689262081  MEMB      124             0.0000000000
     15242       124  23SM      C7S            22.4348595389        2.8334881931      -17.0570250213  MEMB      124             0.0000000000
     15243       124  23SM      H7S            23.2967519209        2.6793905680      -17.7430782451  MEMB      124             0.0000000000
     15244       124  23SM      H7T            21.8121034085        1.9249059470      -17.1143323636  MEMB      124             0.0000000000
     15245       124  23SM      C8S            22.9954460784        2.9980442960      -15.6220363445  MEMB      124             0.0000000000
     15246       124  23SM      H8S            23.7740014208        3.7922780227      -15.6508940930  MEMB      124             0.0000000000
     15247       124  23SM      H8T            23.5054596108        2.0525710048      -15.3230472549  MEMB      124             0.0000000000
     15248       124  23SM      C9S            21.9513333518        3.3717782847      -14.5512384865  MEMB      124             0.0000000000
     15249       124  23SM      H9S            21.2323438405        2.5300304120      -14.4351982245  MEMB      124             0.0000000000
     15250       124  23SM      H9T            21.3743974425        4.2532011659      -14.8941472815  MEMB      124             0.0000000000
     15251       124  23SM      C10S           22.5321124886        3.7362884707      -13.1667877243  MEMB      124             0.0000000000
     15252       124  23SM      H10S           23.2251334090        4.6007556941      -13.2704204307  MEMB      124             0.0000000000
     15253       124  23SM      H10T           23.1158979810        2.8753614114      -12.7703899061  MEMB      124             0.0000000000
     15254       124  23SM      C11S           21.4036120770        4.1094934881      -12.1801501509  MEMB      124             0.0000000000
     15255       124  23SM      H11S           20.6680664590        3.2779482745      -12.2202278659  MEMB      124             0.0000000000
     15256       124  23SM      H11T           20.8878288935        5.0188491914      -12.5553805711  MEMB      124             0.0000000000
     15257       124  23SM      C12S           21.8462554114        4.3522152164      -10.7153235506  MEMB      124             0.0000000000
     15258       124  23SM      H12S           22.7175655320        5.0347066424      -10.7193396545  MEMB      124             0.0000000000
     15259       124  23SM      H12T           22.2110613351        3.3876459253      -10.2997584732  MEMB      124             0.0000000000
     15260       124  23SM      C13S           20.7318040643        4.9293352161       -9.7909219436  MEMB      124             0.0000000000
     15261       124  23SM      H13S           19.7681481599        4.4711435814      -10.0867627402  MEMB      124             0.0000000000
     15262       124  23SM      H13T           20.6283800349        6.0206554955       -9.9709704782  MEMB      124             0.0000000000
     15263       124  23SM      C14S           20.9332828700        4.6594427806       -8.2759995847  MEMB      124             0.0000000000
     15264       124  23SM      H14S           21.5306597961        5.4412412674       -7.8021537869  MEMB      124             0.0000000000
     15265       124  23SM      H14T           21.5466300778        3.7432987111       -8.1978570698  MEMB      124             0.0000000000
     15266       124  23SM      C15S           19.6649737665        4.5858211860       -7.3899028796  MEMB      124             0.0000000000
     15267       124  23SM      H15S           19.1189078685        3.6707845836       -7.5531423893  MEMB      124             0.0000000000
     15268       124  23SM      H15T           18.9424707833        5.3705144860       -7.6693519213  MEMB      124             0.0000000000
     15269       124  23SM      C16S           19.8968784332        4.4480020041       -5.8670714919  MEMB      124             0.0000000000
     15270       124  23SM      H16S           20.0447948361        5.4473275689       -5.4436046922  MEMB      124             0.0000000000
     15271       124  23SM      H16T           20.8417445323        3.9080948722       -5.6770439684  MEMB      124             0.0000000000
     15272       124  23SM      C17S           18.7284097124        3.7077199989       -5.1606587892  MEMB      124             0.0000000000
     15273       124  23SM      H17S           18.6397360840        2.6694255226       -5.4741507661  MEMB      124             0.0000000000
     15274       124  23SM      H17T           17.7697892807        4.1391201323       -5.5085573419  MEMB      124             0.0000000000
     15275       124  23SM      C18S           18.7678249435        3.6349717681       -3.6344662402  MEMB      124             0.0000000000
     15276       124  23SM      H18S           19.1727370192        4.5620296654       -3.2033887295  MEMB      124             0.0000000000
     15277       124  23SM      H18T           19.3942506475        2.7996710056       -3.2629272413  MEMB      124             0.0000000000
     15278       124  23SM      H18U           17.7357940180        3.4728063977       -3.2587029389  MEMB      124             0.0000000000
     15279       124  23SM      C1F            18.4444011722        0.6886824595      -21.1542063702  MEMB      124             0.0000000000
     15280       124  23SM      OF             18.8614245036       -0.2162887821      -21.8642895015  MEMB      124             0.0000000000
     15281       124  23SM      C2F            17.3034640974        0.4644511648      -20.2680341917  MEMB      124             0.0000000000
     15282       124  23SM      H2F            16.4566817161        0.0387776952      -20.8286957833  MEMB      124             0.0000000000
     15283       124  23SM      H2G            16.9627483436        1.3913824663      -19.7584945156  MEMB      124             0.0000000000
     15284       124  23SM      C3F            17.8162942579       -0.5818405876      -19.2826059725  MEMB      124             0.0000000000
     15285       124  23SM      H3F            18.4579330491       -1.3677593780      -19.7447821958  MEMB      124             0.0000000000
     15286       124  23SM      H3G            16.9218989893       -1.1219785614      -18.9376769937  MEMB      124             0.0000000000
     15287       124  23SM      C4F            18.5495129473        0.0812629845      -18.1196339428  MEMB      124             0.0000000000
     15288       124  23SM      H4F            18.0640553087       -0.2259914094      -17.1815648348  MEMB      124             0.0000000000
     15289       124  23SM      H4G            18.4528681038        1.1868651011      -18.1613328054  MEMB      124             0.0000000000
     15290       124  23SM      C5F            20.0108087060       -0.3146599175      -17.9618135091  MEMB      124             0.0000000000
     15291       124  23SM      H5F            20.6370890993        0.3130976173      -18.6312779278  MEMB      124             0.0000000000
     15292       124  23SM      H5G            20.1873493302       -1.3772710589      -18.2394309363  MEMB      124             0.0000000000
     15293       124  23SM      C6F            20.4105165482       -0.1184536394      -16.4978901496  MEMB      124             0.0000000000
     15294       124  23SM      H6F            19.8674144832        0.7574877225      -16.0717107234  MEMB      124             0.0000000000
     15295       124  23SM      H6G            21.4971991155        0.0930318232      -16.4617805233  MEMB      124             0.0000000000
     15296       124  23SM      C7F            20.1701970238       -1.3249097048      -15.5908468568  MEMB      124             0.0000000000
     15297       124  23SM      H7F            20.8117356509       -2.1771001533      -15.9128958514  MEMB      124             0.0000000000
     15298       124  23SM      H7G            19.1194482406       -1.6666235302      -15.6301849829  MEMB      124             0.0000000000
     15299       124  23SM      C8F            20.5029023019       -0.9745719085      -14.1402808580  MEMB      124             0.0000000000
     15300       124  23SM      H8F            20.2885378602       -1.8687188421      -13.5198539727  MEMB      124             0.0000000000
     15301       124  23SM      H8G            19.8241443327       -0.1635492614      -13.7967626463  MEMB      124             0.0000000000
     15302       124  23SM      C9F            21.9613414616       -0.5084698028      -13.9939123748  MEMB      124             0.0000000000
     15303       124  23SM      H9F            21.9665260980        0.6011905508      -14.0114972452  MEMB      124             0.0000000000
     15304       124  23SM      H9G            22.5364576222       -0.8507367830      -14.8847046174  MEMB      124             0.0000000000
     15305       124  23SM      C10F           22.7155268544       -1.0147443088      -12.7583590149  MEMB      124             0.0000000000
     15306       124  23SM      H10F           23.4944341285       -0.2600503135      -12.5078808219  MEMB      124             0.0000000000
     15307       124  23SM      H10G           23.2344424493       -1.9637013277      -13.0187106695  MEMB      124             0.0000000000
     15308       124  23SM      C11F           21.8276306048       -1.2689013500      -11.5389787317  MEMB      124             0.0000000000
     15309       124  23SM      H11F           21.4360324776       -2.3022141628      -11.6209530707  MEMB      124             0.0000000000
     15310       124  23SM      H11G           20.9428997126       -0.6060712096      -11.5900738582  MEMB      124             0.0000000000
     15311       124  23SM      C12F           22.5774305460       -1.0588724539      -10.2166358522  MEMB      124             0.0000000000
     15312       124  23SM      H12F           23.0040393701       -0.0279338290      -10.2277930701  MEMB      124             0.0000000000
     15313       124  23SM      H12G           23.4164326028       -1.7845740307      -10.1629821408  MEMB      124             0.0000000000
     15314       124  23SM      C13F           21.7163623741       -1.2022515006       -8.9557277064  MEMB      124             0.0000000000
     15315       124  23SM      H13F           20.9266654652       -0.4398743219       -8.9859910515  MEMB      124             0.0000000000
     15316       124  23SM      H13G           22.3288358465       -1.0231945939       -8.0423837553  MEMB      124             0.0000000000
     15317       124  23SM      C14F           20.9637986916       -2.5176007708       -8.8254849369  MEMB      124             0.0000000000
     15318       124  23SM      H14F           21.6322207301       -3.2173580765       -8.2930748582  MEMB      124             0.0000000000
     15319       124  23SM      H14G           20.8062316733       -2.9214412141       -9.8402326046  MEMB      124             0.0000000000
     15320       124  23SM      C15F           19.5890822955       -2.4189700056       -8.1227397329  MEMB      124             0.0000000000
     15321       124  23SM      H15F           19.0084849732       -3.3470403019       -8.2863556699  MEMB      124             0.0000000000
     15322       124  23SM      H15G           19.0126954456       -1.5999686817       -8.5994035548  MEMB      124             0.0000000000
     15323       124  23SM      C16F           19.7912128126       -2.1760820591       -6.6151618779  MEMB      124             0.0000000000
     15324       124  23SM      H16F           20.4098705275       -1.2681840434       -6.5865414131  MEMB      124             0.0000000000
     15325       124  23SM      H16G           20.4456453511       -2.9851327845       -6.2586602506  MEMB      124             0.0000000000
     15326       124  23SM      C17F           18.5581333924       -2.0438286060       -5.6741368624  MEMB      124             0.0000000000
     15327       124  23SM      H17F           18.0286392500       -3.0183395135       -5.6597400079  MEMB      124             0.0000000000
     15328       124  23SM      H17G           17.8592860027       -1.2771264687       -6.0715703934  MEMB      124             0.0000000000
     15329       124  23SM      C18F           18.8786117249       -1.6445548464       -4.2044247826  MEMB      124             0.0000000000
     15330       124  23SM      H18F           18.9304399160       -0.5385031144       -4.1191890890  MEMB      124             0.0000000000
     15331       124  23SM      H18G           19.8782310560       -2.0129170183       -3.9164800766  MEMB      124             0.0000000000
     15332       124  23SM      C19F           17.8332630815       -2.0186934398       -3.1401154451  MEMB      124             0.0000000000
     15333       124  23SM      H19F           18.3386134935       -2.4280849822       -2.2349322966  MEMB      124             0.0000000000
     15334       124  23SM      H19G           17.1715909843       -2.8022016648       -3.5543894112  MEMB      124             0.0000000000
     15335       124  23SM      C20F           17.0309470580       -0.7594763197       -2.7582673529  MEMB      124             0.0000000000
     15336       124  23SM      H20F           16.5403875978       -0.4052972399       -3.6926043980  MEMB      124             0.0000000000
     15337       124  23SM      H20G           17.7443047561        0.0280560258       -2.4325329613  MEMB      124             0.0000000000
     15338       124  23SM      C21F           15.9504290363       -0.8968825231       -1.6781462101  MEMB      124             0.0000000000
     15339       124  23SM      H21F           16.4045814944       -0.8642351306       -0.6640441931  MEMB      124             0.0000000000
     15340       124  23SM      H21G           15.4559884696       -1.8799838778       -1.7939606388  MEMB      124             0.0000000000
     15341       124  23SM      C22F           14.8812875270        0.2033167925       -1.8229670633  MEMB      124             0.0000000000
     15342       124  23SM      H22F           14.4262766197        0.0876849202       -2.8337396466  MEMB      124             0.0000000000
     15343       124  23SM      H22G           15.3738363410        1.2030591095       -1.8036236352  MEMB      124             0.0000000000
     15344       124  23SM      C23F           13.7543775069        0.1714222977       -0.7833746400  MEMB      124             0.0000000000
     15345       124  23SM      H23F           13.0443294391       -0.6474188676       -0.9773307679  MEMB      124             0.0000000000
     15346       124  23SM      H23G           13.1375169465        1.0890352304       -0.8375851572  MEMB      124             0.0000000000
     15347       124  23SM      H23H           14.1517194835        0.0425104605        0.2446678605  MEMB      124             0.0000000000
     15348       125  DOPC      N              -6.7312170146       18.6070404981      -19.2923650562  MEMB      125             0.0000000000
     15349       125  DOPC      C12            -6.9850737330       20.1014152949      -19.4961691462  MEMB      125             0.0000000000
     15350       125  DOPC      H12A           -7.6523274250       20.2479367873      -20.3484230244  MEMB      125             0.0000000000
     15351       125  DOPC      H12B           -6.0547937401       20.5689194664      -19.7745956026  MEMB      125             0.0000000000
     15352       125  DOPC      C13            -5.7767542467       18.1477006119      -20.3476638069  MEMB      125             0.0000000000
     15353       125  DOPC      H13A           -6.2780645202       18.0672714102      -21.3147961114  MEMB      125             0.0000000000
     15354       125  DOPC      H13B           -4.9556036951       18.8380853771      -20.4563768431  MEMB      125             0.0000000000
     15355       125  DOPC      H13C           -5.3868472063       17.1612555817      -20.1326466994  MEMB      125             0.0000000000
     15356       125  DOPC      C14            -8.0215656203       17.8650800943      -19.4628751084  MEMB      125             0.0000000000
     15357       125  DOPC      H14A           -7.8913130632       16.7957973906      -19.3672419787  MEMB      125             0.0000000000
     15358       125  DOPC      H14B           -8.7684535630       18.2130023055      -18.7531796461  MEMB      125             0.0000000000
     15359       125  DOPC      H14C           -8.4315092124       18.0362381173      -20.4556252321  MEMB      125             0.0000000000
     15360       125  DOPC      C15            -6.1903780093       18.3019098219      -17.9226571622  MEMB      125             0.0000000000
     15361       125  DOPC      H15A           -5.2136495613       18.7335255254      -17.7647766072  MEMB      125             0.0000000000
     15362       125  DOPC      H15B           -6.0851376525       17.2335725130      -17.7631687221  MEMB      125             0.0000000000
     15363       125  DOPC      H15C           -6.8807350249       18.6883879854      -17.1754894839  MEMB      125             0.0000000000
     15364       125  DOPC      C11            -7.6352413334       20.8963588128      -18.3474856532  MEMB      125             0.0000000000
     15365       125  DOPC      H11A           -7.0855730473       20.7501349608      -17.3926612038  MEMB      125             0.0000000000
     15366       125  DOPC      H11B           -7.5790488903       21.9889739805      -18.5681795780  MEMB      125             0.0000000000
     15367       125  DOPC      P             -10.1931820071       21.2904310297      -18.7981336312  MEMB      125             0.0000000000
     15368       125  DOPC      O13           -10.1007615240       21.3490141452      -20.2734984199  MEMB      125             0.0000000000
     15369       125  DOPC      O14           -10.2508098394       22.5994329950      -18.1240838107  MEMB      125             0.0000000000
     15370       125  DOPC      O12            -8.9716298437       20.4547968899      -18.1932963179  MEMB      125             0.0000000000
     15371       125  DOPC      O11           -11.4315595512       20.4153070924      -18.3741638684  MEMB      125             0.0000000000
     15372       125  DOPC      C1            -11.3948542423       19.2596029250      -17.5449534373  MEMB      125             0.0000000000
     15373       125  DOPC      HA            -10.5447277435       18.5814882673      -17.7840631500  MEMB      125             0.0000000000
     15374       125  DOPC      HB            -12.3251243911       18.6837205737      -17.7578731228  MEMB      125             0.0000000000
     15375       125  DOPC      C2            -11.4210252857       19.5630310896      -16.0144889162  MEMB      125             0.0000000000
     15376       125  DOPC      HS            -12.1917941075       20.3518991334      -15.8397503593  MEMB      125             0.0000000000
     15377       125  DOPC      O21           -10.1142580435       19.9873129945      -15.5708175586  MEMB      125             0.0000000000
     15378       125  DOPC      C21           -10.0489538156       20.4994685579      -14.3609398952  MEMB      125             0.0000000000
     15379       125  DOPC      O22           -10.9765211048       20.6307092289      -13.5808256014  MEMB      125             0.0000000000
     15380       125  DOPC      C22            -8.5917304369       20.8850947141      -14.0994170396  MEMB      125             0.0000000000
     15381       125  DOPC      H2R            -8.3590575857       21.7787598805      -14.7124096231  MEMB      125             0.0000000000
     15382       125  DOPC      H2S            -7.9662999041       20.0380829654      -14.4544491602  MEMB      125             0.0000000000
     15383       125  DOPC      C3            -11.8519504780       18.2676384440      -15.2781265352  MEMB      125             0.0000000000
     15384       125  DOPC      HX            -12.8900845382       18.0436663421      -15.6196496912  MEMB      125             0.0000000000
     15385       125  DOPC      HY            -11.9258173040       18.4257543313      -14.1771562022  MEMB      125             0.0000000000
     15386       125  DOPC      O31           -10.9744370061       17.1778130528      -15.6675831448  MEMB      125             0.0000000000
     15387       125  DOPC      C31           -10.0547128225       16.8272946755      -14.7722348514  MEMB      125             0.0000000000
     15388       125  DOPC      O32            -9.9885260536       17.2398787700      -13.6341863342  MEMB      125             0.0000000000
     15389       125  DOPC      C32            -9.0651426625       15.8688774279      -15.4060110507  MEMB      125             0.0000000000
     15390       125  DOPC      H2X            -9.5892492731       15.2985802311      -16.1894019298  MEMB      125             0.0000000000
     15391       125  DOPC      H2Y            -8.2936136430       16.4606569230      -15.9237370897  MEMB      125             0.0000000000
     15392       125  DOPC      C23            -8.2721830883       21.1447627424      -12.6127613361  MEMB      125             0.0000000000
     15393       125  DOPC      H3R            -7.2163742271       20.8477036149      -12.4476030653  MEMB      125             0.0000000000
     15394       125  DOPC      H3S            -8.8800828497       20.4969537601      -11.9430185692  MEMB      125             0.0000000000
     15395       125  DOPC      C24            -8.3812939476       22.6229174588      -12.2218992419  MEMB      125             0.0000000000
     15396       125  DOPC      H4R            -9.4292535724       22.9678928766      -12.3454022946  MEMB      125             0.0000000000
     15397       125  DOPC      H4S            -7.7400557927       23.2158440644      -12.9162033938  MEMB      125             0.0000000000
     15398       125  DOPC      C25            -7.8845844831       22.8730391190      -10.7914641913  MEMB      125             0.0000000000
     15399       125  DOPC      H5R            -7.7479045553       23.9635055584      -10.6193011614  MEMB      125             0.0000000000
     15400       125  DOPC      H5S            -6.9005672650       22.3748031993      -10.7082611658  MEMB      125             0.0000000000
     15401       125  DOPC      C26            -8.7655833675       22.3000257085       -9.6778312637  MEMB      125             0.0000000000
     15402       125  DOPC      H6R            -8.2115798128       22.3124082191       -8.7127954337  MEMB      125             0.0000000000
     15403       125  DOPC      H6S            -8.9962814027       21.2368459913       -9.9049103027  MEMB      125             0.0000000000
     15404       125  DOPC      C27           -10.0567921230       23.0957688875       -9.5077526816  MEMB      125             0.0000000000
     15405       125  DOPC      H7R           -10.1341539624       23.7904162812      -10.3719704032  MEMB      125             0.0000000000
     15406       125  DOPC      H7S           -10.0064192717       23.7168887668       -8.5881145932  MEMB      125             0.0000000000
     15407       125  DOPC      C28           -11.3016426555       22.2081181092       -9.5214696980  MEMB      125             0.0000000000
     15408       125  DOPC      H8R           -11.2237235261       21.5575405542      -10.4207793207  MEMB      125             0.0000000000
     15409       125  DOPC      H8S           -12.2134203803       22.8087676360       -9.6731375087  MEMB      125             0.0000000000
     15410       125  DOPC      C29           -11.4611441118       21.4525799337       -8.2354501911  MEMB      125             0.0000000000
     15411       125  DOPC      H9R           -11.5174828228       22.0665461503       -7.3236461443  MEMB      125             0.0000000000
     15412       125  DOPC      C210          -11.5054990525       20.1198234228       -8.1343799922  MEMB      125             0.0000000000
     15413       125  DOPC      H10R          -11.5932317407       19.6633659662       -7.1391304869  MEMB      125             0.0000000000
     15414       125  DOPC      C211          -11.4028059419       19.1310041333       -9.2645127263  MEMB      125             0.0000000000
     15415       125  DOPC      H11R          -11.4485310391       19.5994845839      -10.2699585907  MEMB      125             0.0000000000
     15416       125  DOPC      H11S          -12.2678886051       18.4358344709       -9.2529223541  MEMB      125             0.0000000000
     15417       125  DOPC      C212          -10.0620136931       18.3909200564       -9.1328488250  MEMB      125             0.0000000000
     15418       125  DOPC      H12R           -9.2317814410       19.1246057166       -9.2490476600  MEMB      125             0.0000000000
     15419       125  DOPC      H12S           -9.9732569783       17.6712319833       -9.9765576843  MEMB      125             0.0000000000
     15420       125  DOPC      C213           -9.9033767432       17.6392824851       -7.7949355460  MEMB      125             0.0000000000
     15421       125  DOPC      H13R           -9.9512945338       18.3565741694       -6.9503660536  MEMB      125             0.0000000000
     15422       125  DOPC      H13S           -8.8962891962       17.1686752931       -7.7632631925  MEMB      125             0.0000000000
     15423       125  DOPC      C214          -11.0085575654       16.5919291360       -7.6137199998  MEMB      125             0.0000000000
     15424       125  DOPC      H14R          -10.8268104430       15.8220872583       -8.3953396575  MEMB      125             0.0000000000
     15425       125  DOPC      H14S          -12.0049233894       17.0384028838       -7.8076366580  MEMB      125             0.0000000000
     15426       125  DOPC      C215          -11.0975032593       15.9184413883       -6.2375470248  MEMB      125             0.0000000000
     15427       125  DOPC      H15R          -10.1389889514       15.3951872622       -6.0604712073  MEMB      125             0.0000000000
     15428       125  DOPC      H15S          -11.8968122243       15.1467843467       -6.3174145568  MEMB      125             0.0000000000
     15429       125  DOPC      C216          -11.5494317976       16.7979213177       -5.0577141526  MEMB      125             0.0000000000
     15430       125  DOPC      H16R          -12.6057956007       16.5198994993       -4.8180480023  MEMB      125             0.0000000000
     15431       125  DOPC      H16S          -11.5571370325       17.8680611813       -5.3588002658  MEMB      125             0.0000000000
     15432       125  DOPC      C217          -10.7292486685       16.6944327455       -3.7582502286  MEMB      125             0.0000000000
     15433       125  DOPC      H17R          -11.4490715504       16.7214802699       -2.9058946813  MEMB      125             0.0000000000
     15434       125  DOPC      H17S          -10.1105619393       17.6165644160       -3.6761102478  MEMB      125             0.0000000000
     15435       125  DOPC      C218           -9.8065269249       15.4792624019       -3.5805578288  MEMB      125             0.0000000000
     15436       125  DOPC      H18R           -8.8093537522       15.6833751331       -4.0247732432  MEMB      125             0.0000000000
     15437       125  DOPC      H18S          -10.2267517441       14.5722643298       -4.0568531807  MEMB      125             0.0000000000
     15438       125  DOPC      H18T           -9.6673587796       15.2508755010       -2.5021151411  MEMB      125             0.0000000000
     15439       125  DOPC      C33            -8.4906951017       14.8836688069      -14.3688665768  MEMB      125             0.0000000000
     15440       125  DOPC      H3X            -8.0786764535       14.0162318202      -14.9295082375  MEMB      125             0.0000000000
     15441       125  DOPC      H3Y            -9.2874274911       14.5106359921      -13.6882058347  MEMB      125             0.0000000000
     15442       125  DOPC      C34            -7.3929086268       15.4381640852      -13.4687173813  MEMB      125             0.0000000000
     15443       125  DOPC      H4X            -7.0422191158       14.6489636003      -12.7628869200  MEMB      125             0.0000000000
     15444       125  DOPC      H4Y            -7.8268212821       16.2466954129      -12.8394135228  MEMB      125             0.0000000000
     15445       125  DOPC      C35            -6.1934161179       15.9433798702      -14.2574072857  MEMB      125             0.0000000000
     15446       125  DOPC      H5X            -6.4883926424       16.6288236862      -15.0787135807  MEMB      125             0.0000000000
     15447       125  DOPC      H5Y            -5.6526313151       15.0801309589      -14.7057047098  MEMB      125             0.0000000000
     15448       125  DOPC      C36            -5.2589318133       16.7271762248      -13.3653785943  MEMB      125             0.0000000000
     15449       125  DOPC      H6X            -5.0512370050       16.1560138004      -12.4299347158  MEMB      125             0.0000000000
     15450       125  DOPC      H6Y            -4.2864882520       16.8642408884      -13.8940008818  MEMB      125             0.0000000000
     15451       125  DOPC      C37            -5.8149578102       18.1092368206      -13.0127156195  MEMB      125             0.0000000000
     15452       125  DOPC      H7X            -6.0131407833       18.6949521708      -13.9374291830  MEMB      125             0.0000000000
     15453       125  DOPC      H7Y            -6.7612591620       18.0477832102      -12.4276324463  MEMB      125             0.0000000000
     15454       125  DOPC      C38            -4.7441596043       18.7566845885      -12.1625157832  MEMB      125             0.0000000000
     15455       125  DOPC      H8X            -3.7884535696       18.5351803058      -12.6726696795  MEMB      125             0.0000000000
     15456       125  DOPC      H8Y            -4.7359062838       18.1896883056      -11.2069766150  MEMB      125             0.0000000000
     15457       125  DOPC      C39            -4.8052467997       20.2284412998      -11.9563485968  MEMB      125             0.0000000000
     15458       125  DOPC      H9X            -4.8252236456       20.8513088124      -12.8655508029  MEMB      125             0.0000000000
     15459       125  DOPC      C310           -4.7406184884       20.8143911977      -10.7636600263  MEMB      125             0.0000000000
     15460       125  DOPC      H10X           -4.8593381518       21.8873903445      -10.7584545725  MEMB      125             0.0000000000
     15461       125  DOPC      C311           -4.6039716572       20.1908903307       -9.4022531112  MEMB      125             0.0000000000
     15462       125  DOPC      H11X           -3.6458290834       20.5046137651       -8.9335143417  MEMB      125             0.0000000000
     15463       125  DOPC      H11Y           -4.6142825340       19.0798534016       -9.4227234054  MEMB      125             0.0000000000
     15464       125  DOPC      C312           -5.7495275573       20.6624796795       -8.5048728282  MEMB      125             0.0000000000
     15465       125  DOPC      H12X           -6.7299621647       20.4477707763       -8.9876480820  MEMB      125             0.0000000000
     15466       125  DOPC      H12Y           -5.6676264880       21.7640700032       -8.3555544352  MEMB      125             0.0000000000
     15467       125  DOPC      C313           -5.7112744043       19.9733577662       -7.1421725796  MEMB      125             0.0000000000
     15468       125  DOPC      H13X           -5.9463663218       18.8915249717       -7.2525736466  MEMB      125             0.0000000000
     15469       125  DOPC      H13Y           -4.6696480476       20.0544776216       -6.7524421922  MEMB      125             0.0000000000
     15470       125  DOPC      C314           -6.6515015517       20.6227384913       -6.1210991923  MEMB      125             0.0000000000
     15471       125  DOPC      H14X           -6.2392263052       20.3911262564       -5.1149978529  MEMB      125             0.0000000000
     15472       125  DOPC      H14Y           -6.6520328032       21.7252276792       -6.2631999390  MEMB      125             0.0000000000
     15473       125  DOPC      C315           -8.0918371887       20.1164836865       -6.1643488224  MEMB      125             0.0000000000
     15474       125  DOPC      H15X           -8.0632159572       19.0045291008       -6.1550962009  MEMB      125             0.0000000000
     15475       125  DOPC      H15Y           -8.5697711541       20.4382821081       -7.1169837606  MEMB      125             0.0000000000
     15476       125  DOPC      C316           -8.9452556111       20.5950999959       -4.9772532116  MEMB      125             0.0000000000
     15477       125  DOPC      H16X           -8.9895546075       21.7065407297       -4.9716061910  MEMB      125             0.0000000000
     15478       125  DOPC      H16Y           -9.9828117671       20.2170559746       -5.1201015700  MEMB      125             0.0000000000
     15479       125  DOPC      C317           -8.4464258991       20.1063596459       -3.6093700103  MEMB      125             0.0000000000
     15480       125  DOPC      H17X           -8.2555758772       19.0104497738       -3.6609142483  MEMB      125             0.0000000000
     15481       125  DOPC      H17Y           -7.4772310833       20.5978825069       -3.3623064728  MEMB      125             0.0000000000
     15482       125  DOPC      C318           -9.4461408772       20.3889049616       -2.4895199394  MEMB      125             0.0000000000
     15483       125  DOPC      H18X           -9.0336519001       20.0854780140       -1.5055006476  MEMB      125             0.0000000000
     15484       125  DOPC      H18Y           -9.6730613652       21.4746514569       -2.4533380747  MEMB      125             0.0000000000
     15485       125  DOPC      H18Z          -10.3948543649       19.8345107502       -2.6490676710  MEMB      125             0.0000000000
     15486       126  DOPE      N               2.9674269175       21.6249701661      -16.7989590080  MEMB      126             0.0000000000
     15487       126  DOPE      HN1             2.8365875275       20.6684867043      -17.1914669614  MEMB      126             0.0000000000
     15488       126  DOPE      HN2             3.1261627163       21.5954392151      -15.7808134843  MEMB      126             0.0000000000
     15489       126  DOPE      HN3             2.0561750482       22.1055209855      -17.0543583701  MEMB      126             0.0000000000
     15490       126  DOPE      C12             4.0959502395       22.2302901145      -17.5922194292  MEMB      126             0.0000000000
     15491       126  DOPE      H12A            4.9294056392       21.4958086776      -17.5769115728  MEMB      126             0.0000000000
     15492       126  DOPE      H12B            4.4090523995       23.1708936842      -17.1003323702  MEMB      126             0.0000000000
     15493       126  DOPE      C11             3.6670222409       22.4998876318      -19.0467746313  MEMB      126             0.0000000000
     15494       126  DOPE      H11A            4.5677281230       22.7182005814      -19.6698294603  MEMB      126             0.0000000000
     15495       126  DOPE      H11B            3.0506345977       23.4355138575      -19.0766841384  MEMB      126             0.0000000000
     15496       126  DOPE      P               1.4270193244       21.4533235169      -19.8458531636  MEMB      126             0.0000000000
     15497       126  DOPE      O13             0.8646408626       20.1528133663      -20.2256179290  MEMB      126             0.0000000000
     15498       126  DOPE      O14             1.1097669789       22.6556344910      -20.6390139102  MEMB      126             0.0000000000
     15499       126  DOPE      O11             0.9920108828       21.7285101052      -18.3701469593  MEMB      126             0.0000000000
     15500       126  DOPE      O12             2.9907620371       21.3550464865      -19.5849563150  MEMB      126             0.0000000000
     15501       126  DOPE      C1             -0.1314572330       21.0694501045      -17.8033126186  MEMB      126             0.0000000000
     15502       126  DOPE      HA              0.2163474144       20.2870344322      -17.0900022331  MEMB      126             0.0000000000
     15503       126  DOPE      HB             -0.8000049992       20.5702812110      -18.5505423986  MEMB      126             0.0000000000
     15504       126  DOPE      C2             -0.9657689166       22.1157735355      -17.0525117992  MEMB      126             0.0000000000
     15505       126  DOPE      HS             -1.6392495425       22.5858745820      -17.8110627831  MEMB      126             0.0000000000
     15506       126  DOPE      O21            -0.0740516476       23.0999469797      -16.4763374385  MEMB      126             0.0000000000
     15507       126  DOPE      C21            -0.7400616851       24.1628189509      -16.0722244740  MEMB      126             0.0000000000
     15508       126  DOPE      O22            -1.9306936110       24.3400832965      -16.2349586405  MEMB      126             0.0000000000
     15509       126  DOPE      C22             0.2044927937       25.1581218734      -15.4005082840  MEMB      126             0.0000000000
     15510       126  DOPE      H2R            -0.4230012437       25.8263962875      -14.7759296490  MEMB      126             0.0000000000
     15511       126  DOPE      H2S             0.6333354618       25.7734601061      -16.2171998929  MEMB      126             0.0000000000
     15512       126  DOPE      C3             -1.7937531559       21.4069733884      -15.9693859121  MEMB      126             0.0000000000
     15513       126  DOPE      HX             -2.3806072681       20.6111738063      -16.4928577866  MEMB      126             0.0000000000
     15514       126  DOPE      HY             -2.5050802176       22.1026837847      -15.4754182297  MEMB      126             0.0000000000
     15515       126  DOPE      O31            -0.8621233591       20.8698187272      -15.0112913347  MEMB      126             0.0000000000
     15516       126  DOPE      C31            -1.4144568421       19.9535288778      -14.2400510003  MEMB      126             0.0000000000
     15517       126  DOPE      O32            -2.5548762227       19.5389506987      -14.3643579316  MEMB      126             0.0000000000
     15518       126  DOPE      C32            -0.3528086929       19.4545651465      -13.2502527744  MEMB      126             0.0000000000
     15519       126  DOPE      H2X             0.4756191462       19.0279553799      -13.8552708385  MEMB      126             0.0000000000
     15520       126  DOPE      H2Y             0.0328663732       20.3005636068      -12.6528548290  MEMB      126             0.0000000000
     15521       126  DOPE      C23             1.3497339961       24.5401888055      -14.5569744754  MEMB      126             0.0000000000
     15522       126  DOPE      H3R             2.2068875959       25.2527090424      -14.5871263608  MEMB      126             0.0000000000
     15523       126  DOPE      H3S             1.7121139783       23.5822880998      -14.9800076377  MEMB      126             0.0000000000
     15524       126  DOPE      C24             0.9983101908       24.3553034396      -13.0734226169  MEMB      126             0.0000000000
     15525       126  DOPE      H4R             0.7143404671       25.3491997480      -12.6590513154  MEMB      126             0.0000000000
     15526       126  DOPE      H4S             1.9085179214       24.0172093672      -12.5265561298  MEMB      126             0.0000000000
     15527       126  DOPE      C25            -0.1377137358       23.3574071884      -12.8141974279  MEMB      126             0.0000000000
     15528       126  DOPE      H5R             0.0525432680       22.4307945056      -13.3945300875  MEMB      126             0.0000000000
     15529       126  DOPE      H5S            -1.0919028896       23.7939419413      -13.1826668517  MEMB      126             0.0000000000
     15530       126  DOPE      C26            -0.3003017249       22.9878041489      -11.3311130837  MEMB      126             0.0000000000
     15531       126  DOPE      H6R             0.4883962520       22.2566630201      -11.0550289825  MEMB      126             0.0000000000
     15532       126  DOPE      H6S            -1.2911395882       22.4971611058      -11.1929476715  MEMB      126             0.0000000000
     15533       126  DOPE      C27            -0.1753330548       24.1984782012      -10.3962979260  MEMB      126             0.0000000000
     15534       126  DOPE      H7R            -0.6271076527       25.0714637257      -10.9223494523  MEMB      126             0.0000000000
     15535       126  DOPE      H7S             0.8971405000       24.4268602318      -10.2105884284  MEMB      126             0.0000000000
     15536       126  DOPE      C28            -0.9334681636       24.0688756109       -9.0645261330  MEMB      126             0.0000000000
     15537       126  DOPE      H8R            -1.9436433037       23.7029743678       -9.3074873607  MEMB      126             0.0000000000
     15538       126  DOPE      H8S            -1.0705055106       25.0956740991       -8.6621317769  MEMB      126             0.0000000000
     15539       126  DOPE      C29            -0.3705850823       23.1724879060       -8.0022356177  MEMB      126             0.0000000000
     15540       126  DOPE      H9R            -0.6579173418       22.1216078706       -8.0974160234  MEMB      126             0.0000000000
     15541       126  DOPE      C210            0.4235004822       23.5471546398       -6.9876238038  MEMB      126             0.0000000000
     15542       126  DOPE      H10R            0.7324094103       22.7885335564       -6.2501456119  MEMB      126             0.0000000000
     15543       126  DOPE      C211            0.9214395252       24.9439874093       -6.7085439427  MEMB      126             0.0000000000
     15544       126  DOPE      H11R            0.6776321725       25.2384653425       -5.6655723555  MEMB      126             0.0000000000
     15545       126  DOPE      H11S            0.4391824648       25.7007140051       -7.3652460129  MEMB      126             0.0000000000
     15546       126  DOPE      C212            2.4425855508       25.0507388071       -6.9426643835  MEMB      126             0.0000000000
     15547       126  DOPE      H12R            2.7650008151       26.1022642477       -6.7868893064  MEMB      126             0.0000000000
     15548       126  DOPE      H12S            2.6647302189       24.7815160597       -8.0025614346  MEMB      126             0.0000000000
     15549       126  DOPE      C213            3.2893048141       24.1622512878       -6.0223388652  MEMB      126             0.0000000000
     15550       126  DOPE      H13R            4.3681007826       24.2618058873       -6.2645158420  MEMB      126             0.0000000000
     15551       126  DOPE      H13S            3.0086316760       23.1279061516       -6.2256551479  MEMB      126             0.0000000000
     15552       126  DOPE      C214            3.0472157839       24.3746578723       -4.5309205337  MEMB      126             0.0000000000
     15553       126  DOPE      H14R            1.9904862980       24.1221691064       -4.2806027026  MEMB      126             0.0000000000
     15554       126  DOPE      H14S            3.2144453694       25.4467787003       -4.2972110818  MEMB      126             0.0000000000
     15555       126  DOPE      C215            3.9504733062       23.5069474271       -3.6509800949  MEMB      126             0.0000000000
     15556       126  DOPE      H15R            5.0148776556       23.6602672081       -3.9354087258  MEMB      126             0.0000000000
     15557       126  DOPE      H15S            3.7134951447       22.4340537985       -3.8185302617  MEMB      126             0.0000000000
     15558       126  DOPE      C216            3.7454190039       23.8659251722       -2.1783962172  MEMB      126             0.0000000000
     15559       126  DOPE      H16R            2.6703409937       23.7483452504       -1.9166451961  MEMB      126             0.0000000000
     15560       126  DOPE      H16S            4.0123016617       24.9391897956       -2.0438552884  MEMB      126             0.0000000000
     15561       126  DOPE      C217            4.5798952745       23.0244612826       -1.2213009423  MEMB      126             0.0000000000
     15562       126  DOPE      H17R            4.6348391724       23.5652352613       -0.2491229713  MEMB      126             0.0000000000
     15563       126  DOPE      H17S            5.6189297882       22.9475132978       -1.6195635197  MEMB      126             0.0000000000
     15564       126  DOPE      C218            4.0101383109       21.6257193431       -0.9681286765  MEMB      126             0.0000000000
     15565       126  DOPE      H18R            4.4990004030       21.1103563571       -0.1275119905  MEMB      126             0.0000000000
     15566       126  DOPE      H18S            4.1900769997       20.9853843311       -1.8450081710  MEMB      126             0.0000000000
     15567       126  DOPE      H18T            2.9290274184       21.6673922159       -0.7280876458  MEMB      126             0.0000000000
     15568       126  DOPE      C33            -0.8952530341       18.3522511140      -12.3300456791  MEMB      126             0.0000000000
     15569       126  DOPE      H3X            -0.0799701585       17.7058098998      -11.9378698976  MEMB      126             0.0000000000
     15570       126  DOPE      H3Y            -1.5825350662       17.7423638036      -12.9636743447  MEMB      126             0.0000000000
     15571       126  DOPE      C34            -1.7541513543       18.8463112871      -11.1786811400  MEMB      126             0.0000000000
     15572       126  DOPE      H4X            -2.2204069677       19.8128825257      -11.4564607228  MEMB      126             0.0000000000
     15573       126  DOPE      H4Y            -2.5639699087       18.0829542521      -11.0453285314  MEMB      126             0.0000000000
     15574       126  DOPE      C35            -1.1510825784       18.9159241863       -9.7909260809  MEMB      126             0.0000000000
     15575       126  DOPE      H5X            -1.0321220105       17.8860542943       -9.3892228430  MEMB      126             0.0000000000
     15576       126  DOPE      H5Y            -1.9220811676       19.4104510735       -9.1552799296  MEMB      126             0.0000000000
     15577       126  DOPE      C36             0.1488615530       19.6708990711       -9.5399367247  MEMB      126             0.0000000000
     15578       126  DOPE      H6X             0.0835867678       20.7180424366       -9.8833265374  MEMB      126             0.0000000000
     15579       126  DOPE      H6Y             0.9992074357       19.1781610236      -10.0525304935  MEMB      126             0.0000000000
     15580       126  DOPE      C37             0.1739044678       19.6742435198       -8.0184322991  MEMB      126             0.0000000000
     15581       126  DOPE      H7X            -0.6582917961       20.3078419859       -7.6610589182  MEMB      126             0.0000000000
     15582       126  DOPE      H7Y            -0.0936954169       18.6321310870       -7.6812592502  MEMB      126             0.0000000000
     15583       126  DOPE      C38             1.4434929994       19.9074549239       -7.1968204761  MEMB      126             0.0000000000
     15584       126  DOPE      H8X             2.0411675676       19.0531021599       -7.4489284128  MEMB      126             0.0000000000
     15585       126  DOPE      H8Y             0.9777252024       19.7091636209       -6.2293170379  MEMB      126             0.0000000000
     15586       126  DOPE      C39             2.5547708704       20.8921599803       -7.0505858586  MEMB      126             0.0000000000
     15587       126  DOPE      H9X             2.5467138975       21.7799249390       -7.7054088644  MEMB      126             0.0000000000
     15588       126  DOPE      C310            3.5592028672       20.6647117753       -6.1565998797  MEMB      126             0.0000000000
     15589       126  DOPE      H10X            4.4477852970       21.3201826699       -6.1624354711  MEMB      126             0.0000000000
     15590       126  DOPE      C311            3.6873741871       19.4591761890       -5.2365874218  MEMB      126             0.0000000000
     15591       126  DOPE      H11X            3.3897670517       18.5382564635       -5.7673092215  MEMB      126             0.0000000000
     15592       126  DOPE      H11Y            4.7625334293       19.3034883525       -5.0006598125  MEMB      126             0.0000000000
     15593       126  DOPE      C312            2.9414805232       19.4799412067       -3.8690096562  MEMB      126             0.0000000000
     15594       126  DOPE      H12X            3.2280643407       20.4104028645       -3.3581696173  MEMB      126             0.0000000000
     15595       126  DOPE      H12Y            3.2765830203       18.6158100485       -3.2528585628  MEMB      126             0.0000000000
     15596       126  DOPE      C313            1.4096886391       19.4850673618       -3.9473751667  MEMB      126             0.0000000000
     15597       126  DOPE      H13X            1.1471366001       20.3983999514       -4.5296650050  MEMB      126             0.0000000000
     15598       126  DOPE      H13Y            1.0479647919       18.5810559980       -4.4797818223  MEMB      126             0.0000000000
     15599       126  DOPE      C314            0.6088715444       19.6859954084       -2.6666188743  MEMB      126             0.0000000000
     15600       126  DOPE      H14X            1.0370862081       19.1291729280       -1.8086487503  MEMB      126             0.0000000000
     15601       126  DOPE      H14Y           -0.4251397671       19.2982831054       -2.8422213713  MEMB      126             0.0000000000
     15602       126  DOPE      C315            0.4971459583       21.1820569420       -2.3869616419  MEMB      126             0.0000000000
     15603       126  DOPE      H15X            0.0150239678       21.6863127904       -3.2580121925  MEMB      126             0.0000000000
     15604       126  DOPE      H15Y            1.5167125804       21.6101501887       -2.2947001444  MEMB      126             0.0000000000
     15605       126  DOPE      C316           -0.3179845071       21.4761692204       -1.1386342610  MEMB      126             0.0000000000
     15606       126  DOPE      H16X            0.0985403637       20.9021545848       -0.2820745254  MEMB      126             0.0000000000
     15607       126  DOPE      H16Y           -1.3623323218       21.1262529314       -1.3093038652  MEMB      126             0.0000000000
     15608       126  DOPE      C317           -0.3245762131       22.9685962249       -0.8119636595  MEMB      126             0.0000000000
     15609       126  DOPE      H17X            0.7030960258       23.2885690173       -0.5276364387  MEMB      126             0.0000000000
     15610       126  DOPE      H17Y           -0.5971891423       23.5347218405       -1.7333120815  MEMB      126             0.0000000000
     15611       126  DOPE      C318           -1.3070233986       23.2950357409        0.3104311382  MEMB      126             0.0000000000
     15612       126  DOPE      H18X           -1.5082559286       24.3863652775        0.3514999345  MEMB      126             0.0000000000
     15613       126  DOPE      H18Y           -2.2702544296       22.7677670591        0.1306077827  MEMB      126             0.0000000000
     15614       126  DOPE      H18Z           -0.9064275544       22.9520001462        1.2870266296  MEMB      126             0.0000000000
     15615       127  23SM      N              -0.9433679725      -21.6819444054      -27.9439690616  MEMB      127             0.0000000000
     15616       127  23SM      C15            -2.3949980140      -21.7001614750      -27.5805091053  MEMB      127             0.0000000000
     15617       127  23SM      H15A           -2.7041345252      -22.6776885011      -27.2284822162  MEMB      127             0.0000000000
     15618       127  23SM      H15B           -3.0227813124      -21.3690759655      -28.3862906304  MEMB      127             0.0000000000
     15619       127  23SM      H15C           -2.5514279280      -21.0485239253      -26.7135427330  MEMB      127             0.0000000000
     15620       127  23SM      C14            -0.6900616075      -22.6280464697      -29.0768530294  MEMB      127             0.0000000000
     15621       127  23SM      H14A           -0.7621319467      -23.6742585190      -28.7904905215  MEMB      127             0.0000000000
     15622       127  23SM      H14B            0.2876759648      -22.4925501443      -29.5185234117  MEMB      127             0.0000000000
     15623       127  23SM      H14C           -1.4053624383      -22.4806319669      -29.8707586491  MEMB      127             0.0000000000
     15624       127  23SM      C13            -0.6366139608      -20.3014962896      -28.4410411918  MEMB      127             0.0000000000
     15625       127  23SM      H13A           -0.9869322638      -19.5612175998      -27.7281197327  MEMB      127             0.0000000000
     15626       127  23SM      H13B           -1.1358257020      -20.1089001673      -29.3976664001  MEMB      127             0.0000000000
     15627       127  23SM      H13C            0.4116304694      -20.1453703532      -28.6091685336  MEMB      127             0.0000000000
     15628       127  23SM      C12            -0.1481432531      -22.0886940586      -26.7078927797  MEMB      127             0.0000000000
     15629       127  23SM      H12A            0.8811991372      -22.2700838000      -26.9658875645  MEMB      127             0.0000000000
     15630       127  23SM      H12B           -0.5388382099      -23.0409546118      -26.3300839924  MEMB      127             0.0000000000
     15631       127  23SM      C11            -0.1868877754      -21.1434679531      -25.4796830097  MEMB      127             0.0000000000
     15632       127  23SM      H11A            0.1502972216      -20.1289106740      -25.7870629926  MEMB      127             0.0000000000
     15633       127  23SM      H11B            0.5495636042      -21.5064003060      -24.7239673476  MEMB      127             0.0000000000
     15634       127  23SM      P              -2.1202878978      -22.2717425278      -24.0835006722  MEMB      127             0.0000000000
     15635       127  23SM      O13            -3.5585106458      -22.3054671431      -24.4129863297  MEMB      127             0.0000000000
     15636       127  23SM      O14            -1.3043816135      -23.4720054851      -24.3716251406  MEMB      127             0.0000000000
     15637       127  23SM      O11            -1.9412004952      -21.8153479361      -22.5689884781  MEMB      127             0.0000000000
     15638       127  23SM      O12            -1.4979033556      -21.0605709945      -24.9179188076  MEMB      127             0.0000000000
     15639       127  23SM      C1S            -1.9262938388      -20.4081511028      -22.3000925939  MEMB      127             0.0000000000
     15640       127  23SM      H1S            -2.9232474117      -19.9787490499      -22.5297080370  MEMB      127             0.0000000000
     15641       127  23SM      H1T            -1.1639125583      -19.8815006164      -22.9234997685  MEMB      127             0.0000000000
     15642       127  23SM      NF             -0.2371103028      -20.6375596315      -20.5548634910  MEMB      127             0.0000000000
     15643       127  23SM      HNF            -0.1981608814      -21.6273534547      -20.4585319904  MEMB      127             0.0000000000
     15644       127  23SM      C2S            -1.5411000447      -20.0751531043      -20.8302608461  MEMB      127             0.0000000000
     15645       127  23SM      H2S            -1.4973954193      -18.9667436045      -20.7278435389  MEMB      127             0.0000000000
     15646       127  23SM      C3S            -2.6161489856      -20.5725103631      -19.8390474959  MEMB      127             0.0000000000
     15647       127  23SM      H3S            -2.7636333641      -21.6651444763      -19.8592399749  MEMB      127             0.0000000000
     15648       127  23SM      O3             -3.8746392717      -19.9926097003      -20.1734291908  MEMB      127             0.0000000000
     15649       127  23SM      HO3            -3.8296937101      -19.8613433172      -21.1247970142  MEMB      127             0.0000000000
     15650       127  23SM      C4S            -2.2164416896      -20.1029803905      -18.4682702425  MEMB      127             0.0000000000
     15651       127  23SM      H4S            -2.5870651650      -19.1134316839      -18.1778195869  MEMB      127             0.0000000000
     15652       127  23SM      C5S            -1.4412875731      -20.7889207099      -17.6113754342  MEMB      127             0.0000000000
     15653       127  23SM      H5S            -1.0631798950      -21.7877119177      -17.8881137498  MEMB      127             0.0000000000
     15654       127  23SM      C6S            -1.0284438481      -20.3147180605      -16.2496807453  MEMB      127             0.0000000000
     15655       127  23SM      H6S            -1.6189919376      -19.4351444757      -15.9097011672  MEMB      127             0.0000000000
     15656       127  23SM      H6T             0.0417505995      -20.0067566089      -16.2756214796  MEMB      127             0.0000000000
     15657       127  23SM      C7S            -1.1596770793      -21.4565449964      -15.2406998385  MEMB      127             0.0000000000
     15658       127  23SM      H7S            -0.6216704077      -22.3576709583      -15.6132769663  MEMB      127             0.0000000000
     15659       127  23SM      H7T            -2.2340071778      -21.7170782263      -15.1198302984  MEMB      127             0.0000000000
     15660       127  23SM      C8S            -0.5771957808      -21.1008385291      -13.8745095959  MEMB      127             0.0000000000
     15661       127  23SM      H8S             0.4566765070      -20.7177765803      -14.0080308031  MEMB      127             0.0000000000
     15662       127  23SM      H8T            -0.5209940024      -22.0245193579      -13.2542382797  MEMB      127             0.0000000000
     15663       127  23SM      C9S            -1.4530222732      -20.0761889246      -13.1611534440  MEMB      127             0.0000000000
     15664       127  23SM      H9S            -2.4746917864      -20.5117042890      -13.0548218957  MEMB      127             0.0000000000
     15665       127  23SM      H9T            -1.5434158321      -19.1522317671      -13.7719948673  MEMB      127             0.0000000000
     15666       127  23SM      C10S           -0.9366236736      -19.6966750476      -11.7785199771  MEMB      127             0.0000000000
     15667       127  23SM      H10S            0.0335188663      -19.1582773696      -11.8595479542  MEMB      127             0.0000000000
     15668       127  23SM      H10T           -0.7375408216      -20.6286932914      -11.2053730225  MEMB      127             0.0000000000
     15669       127  23SM      C11S           -1.9835054527      -18.8335342104      -11.0628262358  MEMB      127             0.0000000000
     15670       127  23SM      H11S           -2.9857240666      -19.2976422223      -11.2018120187  MEMB      127             0.0000000000
     15671       127  23SM      H11T           -2.0072729535      -17.8237586845      -11.5248383279  MEMB      127             0.0000000000
     15672       127  23SM      C12S           -1.7187361270      -18.7293633049       -9.5688122794  MEMB      127             0.0000000000
     15673       127  23SM      H12S           -0.6977138693      -18.3275223938       -9.4150792638  MEMB      127             0.0000000000
     15674       127  23SM      H12T           -1.7006641301      -19.7547416320       -9.1555490993  MEMB      127             0.0000000000
     15675       127  23SM      C13S           -2.7381714597      -17.8955789233       -8.7704733985  MEMB      127             0.0000000000
     15676       127  23SM      H13S           -3.7232913704      -18.4071023037       -8.7512692117  MEMB      127             0.0000000000
     15677       127  23SM      H13T           -2.8699652626      -16.8991069028       -9.2455999455  MEMB      127             0.0000000000
     15678       127  23SM      C14S           -2.1683098015      -17.7300051041       -7.3600492304  MEMB      127             0.0000000000
     15679       127  23SM      H14S           -1.3504537334      -16.9907900415       -7.4547664588  MEMB      127             0.0000000000
     15680       127  23SM      H14T           -1.7448965559      -18.7191206454       -7.0619671618  MEMB      127             0.0000000000
     15681       127  23SM      C15S           -3.0526487081      -17.2492352949       -6.2087989591  MEMB      127             0.0000000000
     15682       127  23SM      H15S           -4.0889028901      -17.5923489291       -6.4008564325  MEMB      127             0.0000000000
     15683       127  23SM      H15T           -3.0466844223      -16.1366061201       -6.1778828674  MEMB      127             0.0000000000
     15684       127  23SM      C16S           -2.5788070199      -17.8508344706       -4.8625409960  MEMB      127             0.0000000000
     15685       127  23SM      H16S           -1.5509683505      -18.2451290567       -4.9560554367  MEMB      127             0.0000000000
     15686       127  23SM      H16T           -3.2191169035      -18.7348765377       -4.6543122139  MEMB      127             0.0000000000
     15687       127  23SM      C17S           -2.5953313354      -16.9203280757       -3.6369518082  MEMB      127             0.0000000000
     15688       127  23SM      H17S           -3.3646715659      -16.1257097245       -3.7803053676  MEMB      127             0.0000000000
     15689       127  23SM      H17T           -1.6198803353      -16.4002847443       -3.5817904766  MEMB      127             0.0000000000
     15690       127  23SM      C18S           -2.9069904055      -17.6648640422       -2.3237046469  MEMB      127             0.0000000000
     15691       127  23SM      H18S           -2.0286559227      -18.2150671200       -1.9339979197  MEMB      127             0.0000000000
     15692       127  23SM      H18T           -3.7114599247      -18.4119348550       -2.4917959860  MEMB      127             0.0000000000
     15693       127  23SM      H18U           -3.2666430653      -16.9596343293       -1.5417017393  MEMB      127             0.0000000000
     15694       127  23SM      C1F             0.8299556179      -20.0175666707      -21.0208346720  MEMB      127             0.0000000000
     15695       127  23SM      OF              0.7321548874      -18.8572901207      -21.3867280332  MEMB      127             0.0000000000
     15696       127  23SM      C2F             2.1242756660      -20.7780126459      -21.0797050243  MEMB      127             0.0000000000
     15697       127  23SM      H2F             2.4699237990      -20.9898235997      -20.0468619710  MEMB      127             0.0000000000
     15698       127  23SM      H2G             2.8753352694      -20.1068822075      -21.5551129713  MEMB      127             0.0000000000
     15699       127  23SM      C3F             2.0677183448      -22.0956709495      -21.9033556755  MEMB      127             0.0000000000
     15700       127  23SM      H3F             3.0984107755      -22.5221983078      -21.9150992264  MEMB      127             0.0000000000
     15701       127  23SM      H3G             1.8082748254      -21.8460135490      -22.9533528892  MEMB      127             0.0000000000
     15702       127  23SM      C4F             1.0942195327      -23.2024104885      -21.4427477314  MEMB      127             0.0000000000
     15703       127  23SM      H4F             1.2975607045      -24.1249567732      -22.0347431773  MEMB      127             0.0000000000
     15704       127  23SM      H4G             0.0625550759      -22.9012234158      -21.7126848799  MEMB      127             0.0000000000
     15705       127  23SM      C5F             1.1461658473      -23.5591972195      -19.9509908463  MEMB      127             0.0000000000
     15706       127  23SM      H5F             1.0433328182      -22.6697486821      -19.2952590567  MEMB      127             0.0000000000
     15707       127  23SM      H5G             2.1305019774      -24.0226738961      -19.7389117456  MEMB      127             0.0000000000
     15708       127  23SM      C6F             0.0898792476      -24.5945084198      -19.5493723224  MEMB      127             0.0000000000
     15709       127  23SM      H6F             0.1999454355      -24.8308626930      -18.4672465245  MEMB      127             0.0000000000
     15710       127  23SM      H6G             0.3111820682      -25.5268849698      -20.1159273039  MEMB      127             0.0000000000
     15711       127  23SM      C7F            -1.3496889178      -24.1769895962      -19.8623217191  MEMB      127             0.0000000000
     15712       127  23SM      H7F            -1.5011596464      -24.2760704066      -20.9641780566  MEMB      127             0.0000000000
     15713       127  23SM      H7G            -1.4624964370      -23.1130111205      -19.6033456297  MEMB      127             0.0000000000
     15714       127  23SM      C8F            -2.4313395367      -24.9996496293      -19.1473537487  MEMB      127             0.0000000000
     15715       127  23SM      H8F            -2.0513247723      -26.0097298373      -18.8984610851  MEMB      127             0.0000000000
     15716       127  23SM      H8G            -3.2587127278      -25.1469939793      -19.8790961670  MEMB      127             0.0000000000
     15717       127  23SM      C9F            -2.9826624360      -24.3466922799      -17.8723671826  MEMB      127             0.0000000000
     15718       127  23SM      H9F            -4.0141548297      -24.7197476544      -17.7300589005  MEMB      127             0.0000000000
     15719       127  23SM      H9G            -3.0208224185      -23.2433615006      -17.9875282185  MEMB      127             0.0000000000
     15720       127  23SM      C10F           -2.2240545693      -24.7278668595      -16.5936487525  MEMB      127             0.0000000000
     15721       127  23SM      H10F           -1.2453543475      -24.2029218099      -16.5626076698  MEMB      127             0.0000000000
     15722       127  23SM      H10G           -1.9962185262      -25.8092293883      -16.6267944321  MEMB      127             0.0000000000
     15723       127  23SM      C11F           -3.0566984579      -24.4436317123      -15.3310723070  MEMB      127             0.0000000000
     15724       127  23SM      H11F           -3.9193266499      -25.1440506047      -15.2935172073  MEMB      127             0.0000000000
     15725       127  23SM      H11G           -3.4645021462      -23.4120776201      -15.4234680178  MEMB      127             0.0000000000
     15726       127  23SM      C12F           -2.2861143083      -24.5265557866      -13.9974350045  MEMB      127             0.0000000000
     15727       127  23SM      H12F           -1.2784295025      -24.0719970725      -14.1234467679  MEMB      127             0.0000000000
     15728       127  23SM      H12G           -2.1297026765      -25.5879076632      -13.7109174980  MEMB      127             0.0000000000
     15729       127  23SM      C13F           -3.0473942794      -23.7971977946      -12.8734888349  MEMB      127             0.0000000000
     15730       127  23SM      H13F           -4.0849571659      -24.2007126614      -12.8595757919  MEMB      127             0.0000000000
     15731       127  23SM      H13G           -3.1080335631      -22.7149791210      -13.1183163672  MEMB      127             0.0000000000
     15732       127  23SM      C14F           -2.4696423227      -23.9593248600      -11.4569732600  MEMB      127             0.0000000000
     15733       127  23SM      H14F           -1.4680709864      -23.4846749890      -11.3718981380  MEMB      127             0.0000000000
     15734       127  23SM      H14G           -2.3358467337      -25.0506601596      -11.2750912448  MEMB      127             0.0000000000
     15735       127  23SM      C15F           -3.4146563603      -23.4069430482      -10.3653417416  MEMB      127             0.0000000000
     15736       127  23SM      H15F           -3.3138295674      -24.0395109830       -9.4696390174  MEMB      127             0.0000000000
     15737       127  23SM      H15G           -4.4733655862      -23.4970679941      -10.6914656832  MEMB      127             0.0000000000
     15738       127  23SM      C16F           -3.1128216916      -21.9659969913       -9.9247739220  MEMB      127             0.0000000000
     15739       127  23SM      H16F           -3.6366013112      -21.2904702327      -10.6359210654  MEMB      127             0.0000000000
     15740       127  23SM      H16G           -2.0213413091      -21.7851181876      -10.0153041060  MEMB      127             0.0000000000
     15741       127  23SM      C17F           -3.5294222512      -21.6190019630       -8.4771297834  MEMB      127             0.0000000000
     15742       127  23SM      H17F           -4.4119340837      -22.2262064333       -8.1907698403  MEMB      127             0.0000000000
     15743       127  23SM      H17G           -3.8443473085      -20.5527328921       -8.4393597059  MEMB      127             0.0000000000
     15744       127  23SM      C18F           -2.3902572409      -21.7897960601       -7.4520925833  MEMB      127             0.0000000000
     15745       127  23SM      H18F           -1.5742474920      -21.0619138178       -7.6406876370  MEMB      127             0.0000000000
     15746       127  23SM      H18G           -1.9261886131      -22.7847502446       -7.5856910148  MEMB      127             0.0000000000
     15747       127  23SM      C19F           -2.8190290370      -21.6287439557       -5.9851068858  MEMB      127             0.0000000000
     15748       127  23SM      H19F           -3.6767281416      -22.2973789280       -5.7562749940  MEMB      127             0.0000000000
     15749       127  23SM      H19G           -3.1611405374      -20.5834974692       -5.8274621518  MEMB      127             0.0000000000
     15750       127  23SM      C20F           -1.6522901777      -21.9480588087       -5.0335945615  MEMB      127             0.0000000000
     15751       127  23SM      H20F           -0.7327715142      -21.4603738715       -5.4319957425  MEMB      127             0.0000000000
     15752       127  23SM      H20G           -1.4724588662      -23.0475420501       -5.0336964386  MEMB      127             0.0000000000
     15753       127  23SM      C21F           -1.8546588662      -21.4605503316       -3.5934618902  MEMB      127             0.0000000000
     15754       127  23SM      H21F           -2.0357602193      -20.3628216355       -3.6013462226  MEMB      127             0.0000000000
     15755       127  23SM      H21G           -0.9145407362      -21.6314607436       -3.0206265324  MEMB      127             0.0000000000
     15756       127  23SM      C22F           -3.0073527184      -22.1519389720       -2.8599057665  MEMB      127             0.0000000000
     15757       127  23SM      H22F           -2.8346344910      -23.2517495157       -2.8483508277  MEMB      127             0.0000000000
     15758       127  23SM      H22G           -3.9568072200      -21.9651711574       -3.4115962518  MEMB      127             0.0000000000
     15759       127  23SM      C23F           -3.1592425460      -21.6453447390       -1.4287329215  MEMB      127             0.0000000000
     15760       127  23SM      H23F           -2.3025048163      -21.9626296389       -0.8014058229  MEMB      127             0.0000000000
     15761       127  23SM      H23G           -4.0921310250      -22.0296371870       -0.9649743608  MEMB      127             0.0000000000
     15762       127  23SM      H23H           -3.1927935655      -20.5345377805       -1.4232965478  MEMB      127             0.0000000000
     15763       128  23SM      N               6.5752890226      -21.6220510601      -28.0129508936  MEMB      128             0.0000000000
     15764       128  23SM      C15             6.6839977949      -20.1214162588      -28.0374471009  MEMB      128             0.0000000000
     15765       128  23SM      H15A            7.5943784747      -19.7963532956      -28.5480244336  MEMB      128             0.0000000000
     15766       128  23SM      H15B            6.7545867983      -19.7194533471      -27.0226190564  MEMB      128             0.0000000000
     15767       128  23SM      H15C            5.8536162526      -19.6672928450      -28.5427488521  MEMB      128             0.0000000000
     15768       128  23SM      C14             5.3939000430      -22.0002717731      -27.1774615018  MEMB      128             0.0000000000
     15769       128  23SM      H14A            5.4021776638      -23.0619566052      -26.9504333756  MEMB      128             0.0000000000
     15770       128  23SM      H14B            4.4479978759      -21.6864718887      -27.5652907765  MEMB      128             0.0000000000
     15771       128  23SM      H14C            5.5169850149      -21.5272120509      -26.1871272200  MEMB      128             0.0000000000
     15772       128  23SM      C13             6.4209696708      -22.1268961903      -29.4130773554  MEMB      128             0.0000000000
     15773       128  23SM      H13A            7.3190898269      -21.9970648543      -30.0120455637  MEMB      128             0.0000000000
     15774       128  23SM      H13B            5.6408833083      -21.5707381105      -29.9177676084  MEMB      128             0.0000000000
     15775       128  23SM      H13C            6.1573853593      -23.1719164401      -29.4421994129  MEMB      128             0.0000000000
     15776       128  23SM      C12             7.8142323931      -22.1773337521      -27.3130882381  MEMB      128             0.0000000000
     15777       128  23SM      H12A            8.6825710266      -22.0086569644      -27.9443355124  MEMB      128             0.0000000000
     15778       128  23SM      H12B            7.6795638963      -23.2457346590      -27.1730634864  MEMB      128             0.0000000000
     15779       128  23SM      C11             8.1717104717      -21.5957012630      -25.9056670546  MEMB      128             0.0000000000
     15780       128  23SM      H11A            8.4235116926      -20.5191632554      -26.0313909207  MEMB      128             0.0000000000
     15781       128  23SM      H11B            9.1018937116      -22.0927798609      -25.5330602266  MEMB      128             0.0000000000
     15782       128  23SM      P               6.7790532103      -23.0766758699      -24.2286806804  MEMB      128             0.0000000000
     15783       128  23SM      O13             5.3370939647      -22.9703938727      -23.8962244071  MEMB      128             0.0000000000
     15784       128  23SM      O14             7.2069133081      -24.1745601042      -25.1385646920  MEMB      128             0.0000000000
     15785       128  23SM      O11             7.6940904999      -22.8819031721      -22.9354453404  MEMB      128             0.0000000000
     15786       128  23SM      O12             7.1007210185      -21.6977540190      -24.9622387410  MEMB      128             0.0000000000
     15787       128  23SM      C1S             7.4597664190      -21.6843849114      -22.1662647934  MEMB      128             0.0000000000
     15788       128  23SM      H1S             6.3793072498      -21.4033180659      -22.1541742981  MEMB      128             0.0000000000
     15789       128  23SM      H1T             8.0288044883      -20.8534666384      -22.6333840204  MEMB      128             0.0000000000
     15790       128  23SM      NF              6.6534309132      -22.1231087259      -19.8783047832  MEMB      128             0.0000000000
     15791       128  23SM      HNF             6.2180471329      -21.3918890592      -19.3700056690  MEMB      128             0.0000000000
     15792       128  23SM      C2S             7.8448766708      -21.7813586748      -20.6509318970  MEMB      128             0.0000000000
     15793       128  23SM      H2S             8.6136537671      -22.5780149290      -20.5202621320  MEMB      128             0.0000000000
     15794       128  23SM      C3S             8.4675356230      -20.4200521791      -20.1633695871  MEMB      128             0.0000000000
     15795       128  23SM      H3S             7.7403267149      -19.6140133952      -20.3902362365  MEMB      128             0.0000000000
     15796       128  23SM      O3              9.6897530003      -20.0007343046      -20.7720671647  MEMB      128             0.0000000000
     15797       128  23SM      HO3             9.9320396259      -20.7175889762      -21.3647676147  MEMB      128             0.0000000000
     15798       128  23SM      C4S             8.6337158218      -20.5257200787      -18.6623504094  MEMB      128             0.0000000000
     15799       128  23SM      H4S             9.0592781091      -21.4876025866      -18.3481809305  MEMB      128             0.0000000000
     15800       128  23SM      C5S             8.3261479572      -19.6260647623      -17.7014087788  MEMB      128             0.0000000000
     15801       128  23SM      H5S             7.9665589483      -18.6189683212      -17.9753937514  MEMB      128             0.0000000000
     15802       128  23SM      C6S             8.5295329846      -19.8805543570      -16.2223205252  MEMB      128             0.0000000000
     15803       128  23SM      H6S             8.0837926770      -19.0513750293      -15.6253020538  MEMB      128             0.0000000000
     15804       128  23SM      H6T             9.6137578930      -19.9083009005      -15.9753577214  MEMB      128             0.0000000000
     15805       128  23SM      C7S             7.8533507406      -21.1899548940      -15.7391409129  MEMB      128             0.0000000000
     15806       128  23SM      H7S             8.0937337780      -22.0199016737      -16.4447170833  MEMB      128             0.0000000000
     15807       128  23SM      H7T             6.7509749445      -21.0654236808      -15.7395209369  MEMB      128             0.0000000000
     15808       128  23SM      C8S             8.3204414845      -21.6589887958      -14.3549850993  MEMB      128             0.0000000000
     15809       128  23SM      H8S             9.3256549135      -21.2419763486      -14.2010149826  MEMB      128             0.0000000000
     15810       128  23SM      H8T             8.4065460009      -22.7689678664      -14.3865247074  MEMB      128             0.0000000000
     15811       128  23SM      C9S             7.4058071904      -21.3453998198      -13.1648771309  MEMB      128             0.0000000000
     15812       128  23SM      H9S             6.5357738642      -22.0119190205      -13.2957500070  MEMB      128             0.0000000000
     15813       128  23SM      H9T             7.0604485038      -20.2904549122      -13.1876499770  MEMB      128             0.0000000000
     15814       128  23SM      C10S            8.0208017282      -21.6774623646      -11.7926843367  MEMB      128             0.0000000000
     15815       128  23SM      H10S            8.6452360272      -20.8160402904      -11.4692376666  MEMB      128             0.0000000000
     15816       128  23SM      H10T            8.6699490578      -22.5727584579      -11.9003656354  MEMB      128             0.0000000000
     15817       128  23SM      C11S            6.9913696213      -22.0264597947      -10.7068809760  MEMB      128             0.0000000000
     15818       128  23SM      H11S            6.4539335558      -22.9565093078      -10.9964356161  MEMB      128             0.0000000000
     15819       128  23SM      H11T            6.2489523616      -21.2032383264      -10.6443506838  MEMB      128             0.0000000000
     15820       128  23SM      C12S            7.5975953658      -22.2430197221       -9.3137145369  MEMB      128             0.0000000000
     15821       128  23SM      H12S            8.3817757124      -23.0324691402       -9.3331533101  MEMB      128             0.0000000000
     15822       128  23SM      H12T            6.7969460898      -22.5788397034       -8.6138775878  MEMB      128             0.0000000000
     15823       128  23SM      C13S            8.2004371028      -20.9667639834       -8.7498518230  MEMB      128             0.0000000000
     15824       128  23SM      H13S            7.5015734531      -20.1137019382       -8.9021167438  MEMB      128             0.0000000000
     15825       128  23SM      H13T            9.1324543745      -20.7071525414       -9.2994316373  MEMB      128             0.0000000000
     15826       128  23SM      C14S            8.5288743944      -21.0928170782       -7.2681364952  MEMB      128             0.0000000000
     15827       128  23SM      H14S            9.2070380675      -21.9584494895       -7.0876860319  MEMB      128             0.0000000000
     15828       128  23SM      H14T            7.6171328676      -21.2351992580       -6.6470188155  MEMB      128             0.0000000000
     15829       128  23SM      C15S            9.2119443317      -19.8111434453       -6.8629213993  MEMB      128             0.0000000000
     15830       128  23SM      H15S            8.5521688443      -18.9304325733       -7.0236895707  MEMB      128             0.0000000000
     15831       128  23SM      H15T           10.1130087154      -19.6892472348       -7.5142567442  MEMB      128             0.0000000000
     15832       128  23SM      C16S            9.6774567831      -19.7999011040       -5.4357269613  MEMB      128             0.0000000000
     15833       128  23SM      H16S           10.3271016420      -20.6751379352       -5.2663003994  MEMB      128             0.0000000000
     15834       128  23SM      H16T            8.8484327229      -19.8572344164       -4.6967203569  MEMB      128             0.0000000000
     15835       128  23SM      C17S           10.4951211545      -18.5366395590       -5.3084658379  MEMB      128             0.0000000000
     15836       128  23SM      H17S            9.8083422374      -17.6612437361       -5.3693131952  MEMB      128             0.0000000000
     15837       128  23SM      H17T           11.1928446400      -18.4741160568       -6.1790856741  MEMB      128             0.0000000000
     15838       128  23SM      C18S           11.2951535730      -18.5693929318       -4.0324540590  MEMB      128             0.0000000000
     15839       128  23SM      H18S           10.6653236350      -18.2196615983       -3.1905094929  MEMB      128             0.0000000000
     15840       128  23SM      H18T           12.2027018419      -17.9422188465       -4.1305707098  MEMB      128             0.0000000000
     15841       128  23SM      H18U           11.6002197482      -19.6136701154       -3.8149567938  MEMB      128             0.0000000000
     15842       128  23SM      C1F             6.1341289844      -23.3525656803      -19.8330272745  MEMB      128             0.0000000000
     15843       128  23SM      OF              6.7930841197      -24.3349583034      -20.1315059073  MEMB      128             0.0000000000
     15844       128  23SM      C2F             4.7138247200      -23.4564722961      -19.3608402130  MEMB      128             0.0000000000
     15845       128  23SM      H2F             4.0888308289      -23.5828745496      -20.2696000826  MEMB      128             0.0000000000
     15846       128  23SM      H2G             4.4105027576      -22.5113814414      -18.8623225893  MEMB      128             0.0000000000
     15847       128  23SM      C3F             4.4704465488      -24.6556970075      -18.4057218231  MEMB      128             0.0000000000
     15848       128  23SM      H3F             4.6700948949      -25.5924978130      -18.9753065375  MEMB      128             0.0000000000
     15849       128  23SM      H3G             3.3941359940      -24.6865917163      -18.1202766268  MEMB      128             0.0000000000
     15850       128  23SM      C4F             5.3142003611      -24.6536506864      -17.1166547823  MEMB      128             0.0000000000
     15851       128  23SM      H4F             6.3746755644      -24.8611079000      -17.3907301627  MEMB      128             0.0000000000
     15852       128  23SM      H4G             4.9745226601      -25.4869487024      -16.4609925254  MEMB      128             0.0000000000
     15853       128  23SM      C5F             5.2554462665      -23.3442187735      -16.3049641093  MEMB      128             0.0000000000
     15854       128  23SM      H5F             5.6551924012      -22.5163282062      -16.9290270660  MEMB      128             0.0000000000
     15855       128  23SM      H5G             5.9254678697      -23.4461889121      -15.4215613217  MEMB      128             0.0000000000
     15856       128  23SM      C6F             3.8365146146      -22.9732953804      -15.8333929314  MEMB      128             0.0000000000
     15857       128  23SM      H6F             3.3791291901      -23.8351231575      -15.3108045578  MEMB      128             0.0000000000
     15858       128  23SM      H6G             3.2228193804      -22.7831425538      -16.7434389122  MEMB      128             0.0000000000
     15859       128  23SM      C7F             3.7696520347      -21.7189028383      -14.9417713642  MEMB      128             0.0000000000
     15860       128  23SM      H7F             2.7718079807      -21.2397732356      -15.0406385970  MEMB      128             0.0000000000
     15861       128  23SM      H7G             4.5252393371      -20.9962205116      -15.3288287250  MEMB      128             0.0000000000
     15862       128  23SM      C8F             4.0468216573      -21.9608924221      -13.4456967307  MEMB      128             0.0000000000
     15863       128  23SM      H8F             4.6020808468      -21.0701976690      -13.0727446097  MEMB      128             0.0000000000
     15864       128  23SM      H8G             4.7006010453      -22.8522452660      -13.3241698911  MEMB      128             0.0000000000
     15865       128  23SM      C9F             2.8237349013      -22.1408064223      -12.5326961260  MEMB      128             0.0000000000
     15866       128  23SM      H9F             2.3378566667      -23.1114419480      -12.7799961221  MEMB      128             0.0000000000
     15867       128  23SM      H9G             2.0821795693      -21.3349485964      -12.7095511477  MEMB      128             0.0000000000
     15868       128  23SM      C10F            3.2237157557      -22.1281254458      -11.0437629018  MEMB      128             0.0000000000
     15869       128  23SM      H10F            4.1432357008      -22.7424288109      -10.9220991022  MEMB      128             0.0000000000
     15870       128  23SM      H10G            2.4216682467      -22.6022124860      -10.4362896925  MEMB      128             0.0000000000
     15871       128  23SM      C11F            3.5073224247      -20.7197444849      -10.4975241390  MEMB      128             0.0000000000
     15872       128  23SM      H11F            2.5984301843      -20.0889614045      -10.5985680103  MEMB      128             0.0000000000
     15873       128  23SM      H11G            4.3075656800      -20.2502077029      -11.1117920611  MEMB      128             0.0000000000
     15874       128  23SM      C12F            3.9733711289      -20.7034158262       -9.0326140787  MEMB      128             0.0000000000
     15875       128  23SM      H12F            4.8223591498      -21.4094688943       -8.9065972281  MEMB      128             0.0000000000
     15876       128  23SM      H12G            3.1508243310      -21.0537701136       -8.3736274909  MEMB      128             0.0000000000
     15877       128  23SM      C13F            4.4467405860      -19.3063261859       -8.6038671053  MEMB      128             0.0000000000
     15878       128  23SM      H13F            3.5700327373      -18.6320936792       -8.5439034056  MEMB      128             0.0000000000
     15879       128  23SM      H13G            5.1120653516      -18.9004281254       -9.3962156944  MEMB      128             0.0000000000
     15880       128  23SM      C14F            5.2091847648      -19.2692075330       -7.2691531492  MEMB      128             0.0000000000
     15881       128  23SM      H14F            5.4984086063      -18.2152179800       -7.0664439957  MEMB      128             0.0000000000
     15882       128  23SM      H14G            6.1301165966      -19.8700726102       -7.3452046195  MEMB      128             0.0000000000
     15883       128  23SM      C15F            4.3823202490      -19.7676034914       -6.0920379305  MEMB      128             0.0000000000
     15884       128  23SM      H15F            3.7930063691      -20.6691339597       -6.3569355921  MEMB      128             0.0000000000
     15885       128  23SM      H15G            3.6592823091      -18.9512653887       -5.8791761592  MEMB      128             0.0000000000
     15886       128  23SM      C16F            5.1330365005      -20.0686693527       -4.7882293969  MEMB      128             0.0000000000
     15887       128  23SM      H16F            5.9534125161      -19.3325455519       -4.6266564912  MEMB      128             0.0000000000
     15888       128  23SM      H16G            5.5799776694      -21.0854611942       -4.8217939865  MEMB      128             0.0000000000
     15889       128  23SM      C17F            4.0634014572      -19.9489271035       -3.6986213803  MEMB      128             0.0000000000
     15890       128  23SM      H17F            3.1830679058      -20.5706055493       -3.9755852436  MEMB      128             0.0000000000
     15891       128  23SM      H17G            3.7794095599      -18.8672013598       -3.7143895649  MEMB      128             0.0000000000
     15892       128  23SM      C18F            4.4314426812      -20.2061453385       -2.2544767762  MEMB      128             0.0000000000
     15893       128  23SM      H18F            3.7730864763      -19.5729502057       -1.6230147471  MEMB      128             0.0000000000
     15894       128  23SM      H18G            5.4344326675      -19.8084608247       -2.1114314021  MEMB      128             0.0000000000
     15895       128  23SM      C19F            4.2501591236      -21.6395598345       -1.7446027396  MEMB      128             0.0000000000
     15896       128  23SM      H19F            4.7913108699      -22.3257061393       -2.4200571632  MEMB      128             0.0000000000
     15897       128  23SM      H19G            3.1727033435      -21.8935593011       -1.8232128561  MEMB      128             0.0000000000
     15898       128  23SM      C20F            4.7080155747      -21.7311758407       -0.2686945932  MEMB      128             0.0000000000
     15899       128  23SM      H20F            4.1620081285      -20.9083213693        0.2319767102  MEMB      128             0.0000000000
     15900       128  23SM      H20G            5.7911781153      -21.5007220228       -0.2280773324  MEMB      128             0.0000000000
     15901       128  23SM      C21F            4.4037234212      -23.0254411175        0.5225987543  MEMB      128             0.0000000000
     15902       128  23SM      H21F            4.5493271063      -23.9145611378       -0.1234489967  MEMB      128             0.0000000000
     15903       128  23SM      H21G            3.3359394430      -22.9675163215        0.7880252359  MEMB      128             0.0000000000
     15904       128  23SM      C22F            5.1831778552      -23.2579394885        1.8464596440  MEMB      128             0.0000000000
     15905       128  23SM      H22F            5.0339080223      -24.3218877346        2.1473468070  MEMB      128             0.0000000000
     15906       128  23SM      H22G            4.7468111383      -22.6550136216        2.6705671562  MEMB      128             0.0000000000
     15907       128  23SM      C23F            6.6824904584      -22.9659891742        1.7729734599  MEMB      128             0.0000000000
     15908       128  23SM      H23F            7.1116922529      -23.5334112257        0.9300882326  MEMB      128             0.0000000000
     15909       128  23SM      H23G            7.2184685953      -23.2701742202        2.6962243418  MEMB      128             0.0000000000
     15910       128  23SM      H23H            6.8751679641      -21.8859132039        1.5966596276  MEMB      128             0.0000000000
     15911       129  DOPC      N              -8.5496876069      -19.8097042735      -19.5700950768  MEMB      129             0.0000000000
     15912       129  DOPC      C12            -9.0087306470      -20.4945421316      -18.2870910139  MEMB      129             0.0000000000
     15913       129  DOPC      H12A          -10.0988704819      -20.4825076742      -18.2603977607  MEMB      129             0.0000000000
     15914       129  DOPC      H12B           -8.6568012363      -19.9061002555      -17.4500799930  MEMB      129             0.0000000000
     15915       129  DOPC      C13            -7.2305216137      -20.3629855519      -20.0274854938  MEMB      129             0.0000000000
     15916       129  DOPC      H13A           -7.3390508521      -21.4119380634      -20.2858812843  MEMB      129             0.0000000000
     15917       129  DOPC      H13B           -6.8361041357      -19.8183374891      -20.8810097173  MEMB      129             0.0000000000
     15918       129  DOPC      H13C           -6.4883956579      -20.2655138382      -19.2467469137  MEMB      129             0.0000000000
     15919       129  DOPC      C14            -8.3364907560      -18.3520752893      -19.2690195702  MEMB      129             0.0000000000
     15920       129  DOPC      H14A           -9.2092992289      -17.8501493406      -18.8808670329  MEMB      129             0.0000000000
     15921       129  DOPC      H14B           -7.5583055221      -18.2312909690      -18.5118240479  MEMB      129             0.0000000000
     15922       129  DOPC      H14C           -7.9543361915      -17.7953403827      -20.1160759242  MEMB      129             0.0000000000
     15923       129  DOPC      C15            -9.5669432384      -20.0705074769      -20.6456726600  MEMB      129             0.0000000000
     15924       129  DOPC      H15A           -9.1827207151      -19.8238269748      -21.6221401304  MEMB      129             0.0000000000
     15925       129  DOPC      H15B          -10.5192329143      -19.5983618754      -20.4414350643  MEMB      129             0.0000000000
     15926       129  DOPC      H15C           -9.8162257053      -21.1418943566      -20.6723049213  MEMB      129             0.0000000000
     15927       129  DOPC      C11            -8.5697187295      -21.9571363756      -18.0432837485  MEMB      129             0.0000000000
     15928       129  DOPC      H11A           -7.4617691804      -22.0196155827      -18.0014243802  MEMB      129             0.0000000000
     15929       129  DOPC      H11B           -8.9251647812      -22.2661639882      -17.0338587461  MEMB      129             0.0000000000
     15930       129  DOPC      P             -10.5672211876      -23.2833297046      -19.0465100976  MEMB      129             0.0000000000
     15931       129  DOPC      O13           -10.6218314509      -24.5684446450      -19.7725210054  MEMB      129             0.0000000000
     15932       129  DOPC      O14           -11.4180718977      -22.1644791186      -19.5027961259  MEMB      129             0.0000000000
     15933       129  DOPC      O12            -9.0456321694      -22.8238015779      -19.0684249678  MEMB      129             0.0000000000
     15934       129  DOPC      O11           -10.8280178753      -23.5677439163      -17.4915749216  MEMB      129             0.0000000000
     15935       129  DOPC      C1            -11.9219749908      -24.3844230154      -17.0437233755  MEMB      129             0.0000000000
     15936       129  DOPC      HA            -11.5598254043      -25.4313686882      -16.9538395870  MEMB      129             0.0000000000
     15937       129  DOPC      HB            -12.7644724274      -24.4078129739      -17.7750600717  MEMB      129             0.0000000000
     15938       129  DOPC      C2            -12.5583363428      -23.9840671200      -15.6503389852  MEMB      129             0.0000000000
     15939       129  DOPC      HS            -13.6162882612      -23.6889640376      -15.8393166717  MEMB      129             0.0000000000
     15940       129  DOPC      O21           -11.8852963449      -22.9236294865      -14.9452926780  MEMB      129             0.0000000000
     15941       129  DOPC      C21           -11.8717322509      -21.7245318856      -15.4679425888  MEMB      129             0.0000000000
     15942       129  DOPC      O22           -12.3798305325      -21.3798537239      -16.5198188855  MEMB      129             0.0000000000
     15943       129  DOPC      C22           -11.2363883071      -20.7135432913      -14.5032326478  MEMB      129             0.0000000000
     15944       129  DOPC      H2R           -11.4619832742      -19.7242087990      -14.9598914900  MEMB      129             0.0000000000
     15945       129  DOPC      H2S           -10.1398805873      -20.8239664557      -14.4984026456  MEMB      129             0.0000000000
     15946       129  DOPC      C3            -12.5897292265      -25.1929136083      -14.6715685051  MEMB      129             0.0000000000
     15947       129  DOPC      HX            -13.1402614805      -26.0349339277      -15.1348774764  MEMB      129             0.0000000000
     15948       129  DOPC      HY            -13.1459283333      -24.9197955829      -13.7418464314  MEMB      129             0.0000000000
     15949       129  DOPC      O31           -11.2299175223      -25.6006804236      -14.4287261692  MEMB      129             0.0000000000
     15950       129  DOPC      C31           -10.6799448074      -25.0372537162      -13.3501346582  MEMB      129             0.0000000000
     15951       129  DOPC      O32           -11.2135218000      -24.9494718689      -12.2600270094  MEMB      129             0.0000000000
     15952       129  DOPC      C32            -9.2354437707      -24.6515562008      -13.7215541727  MEMB      129             0.0000000000
     15953       129  DOPC      H2X            -8.7048633194      -24.7870841507      -12.7645316954  MEMB      129             0.0000000000
     15954       129  DOPC      H2Y            -8.8737147134      -25.3576616947      -14.4945944456  MEMB      129             0.0000000000
     15955       129  DOPC      C23           -11.8575035866      -20.6890854831      -13.0810578529  MEMB      129             0.0000000000
     15956       129  DOPC      H3R           -12.9500297577      -20.8719813075      -13.1464172144  MEMB      129             0.0000000000
     15957       129  DOPC      H3S           -11.7176774087      -19.6734774032      -12.6423506175  MEMB      129             0.0000000000
     15958       129  DOPC      C24           -11.2929008943      -21.7023221803      -12.0818410877  MEMB      129             0.0000000000
     15959       129  DOPC      H4R           -10.2292877116      -21.4931714343      -11.8477167899  MEMB      129             0.0000000000
     15960       129  DOPC      H4S           -11.3727643723      -22.7013581384      -12.5371130515  MEMB      129             0.0000000000
     15961       129  DOPC      C25           -12.0920136330      -21.7041730487      -10.7876905358  MEMB      129             0.0000000000
     15962       129  DOPC      H5R           -13.0835944485      -22.1772191285      -10.9648538703  MEMB      129             0.0000000000
     15963       129  DOPC      H5S           -12.2373655255      -20.6263382155      -10.5340331598  MEMB      129             0.0000000000
     15964       129  DOPC      C26           -11.4204211362      -22.3523954076       -9.5767485648  MEMB      129             0.0000000000
     15965       129  DOPC      H6R           -11.5259354643      -21.5966410541       -8.7636050995  MEMB      129             0.0000000000
     15966       129  DOPC      H6S           -10.3390063054      -22.4997998306       -9.7771688470  MEMB      129             0.0000000000
     15967       129  DOPC      C27           -12.0701522427      -23.6723712081       -9.1202102876  MEMB      129             0.0000000000
     15968       129  DOPC      H7R           -11.8397693873      -24.4643533395       -9.8674563332  MEMB      129             0.0000000000
     15969       129  DOPC      H7S           -13.1758754480      -23.5430456445       -9.1049941238  MEMB      129             0.0000000000
     15970       129  DOPC      C28           -11.6317586469      -24.1459885467       -7.7202655461  MEMB      129             0.0000000000
     15971       129  DOPC      H8R           -10.5663957486      -24.4676537716       -7.7498954086  MEMB      129             0.0000000000
     15972       129  DOPC      H8S           -12.2200650165      -25.0503844845       -7.4553337161  MEMB      129             0.0000000000
     15973       129  DOPC      C29           -11.8092054821      -23.0449176065       -6.7048876204  MEMB      129             0.0000000000
     15974       129  DOPC      H9R           -11.0860608235      -22.2326534182       -6.8125684983  MEMB      129             0.0000000000
     15975       129  DOPC      C210          -12.7719459337      -22.8871500539       -5.7897409229  MEMB      129             0.0000000000
     15976       129  DOPC      H10R          -12.7514560651      -22.0042784525       -5.1325909070  MEMB      129             0.0000000000
     15977       129  DOPC      C211          -13.9296430751      -23.8070570091       -5.5687340319  MEMB      129             0.0000000000
     15978       129  DOPC      H11R          -14.2431928017      -24.2856674494       -6.5070048779  MEMB      129             0.0000000000
     15979       129  DOPC      H11S          -14.8063500475      -23.2224141975       -5.2131922402  MEMB      129             0.0000000000
     15980       129  DOPC      C212          -13.6580983712      -24.8465193598       -4.4946366861  MEMB      129             0.0000000000
     15981       129  DOPC      H12R          -14.5687115093      -25.4432204908       -4.3171907662  MEMB      129             0.0000000000
     15982       129  DOPC      H12S          -13.4663143075      -24.2651673610       -3.5691345726  MEMB      129             0.0000000000
     15983       129  DOPC      C213          -12.5410114356      -25.8587616867       -4.7476950819  MEMB      129             0.0000000000
     15984       129  DOPC      H13R          -11.5623518381      -25.3404996508       -4.8638102521  MEMB      129             0.0000000000
     15985       129  DOPC      H13S          -12.7057805013      -26.4481908398       -5.6751788220  MEMB      129             0.0000000000
     15986       129  DOPC      C214          -12.4718228895      -26.8207476785       -3.5599550480  MEMB      129             0.0000000000
     15987       129  DOPC      H14R          -11.5759263876      -27.4458346673       -3.7533411506  MEMB      129             0.0000000000
     15988       129  DOPC      H14S          -13.3470120056      -27.5027343428       -3.5465158653  MEMB      129             0.0000000000
     15989       129  DOPC      C215          -12.3802886192      -26.0695213080       -2.2128010423  MEMB      129             0.0000000000
     15990       129  DOPC      H15R          -12.2841320265      -26.7857810786       -1.3789135306  MEMB      129             0.0000000000
     15991       129  DOPC      H15S          -13.3327365913      -25.5460525468       -2.0115994880  MEMB      129             0.0000000000
     15992       129  DOPC      C216          -11.1742232781      -25.1175526615       -2.2491525826  MEMB      129             0.0000000000
     15993       129  DOPC      H16R          -11.4043609560      -24.2238953561       -2.8744081690  MEMB      129             0.0000000000
     15994       129  DOPC      H16S          -10.3950749289      -25.6791944150       -2.7905496649  MEMB      129             0.0000000000
     15995       129  DOPC      C217          -10.5811009406      -24.6445288486       -0.9145472401  MEMB      129             0.0000000000
     15996       129  DOPC      H17R          -11.1969036162      -23.7705473146       -0.6270850099  MEMB      129             0.0000000000
     15997       129  DOPC      H17S           -9.5633592154      -24.2470275851       -1.1056079264  MEMB      129             0.0000000000
     15998       129  DOPC      C218          -10.5295204762      -25.6418416505        0.2602096008  MEMB      129             0.0000000000
     15999       129  DOPC      H18R          -11.4754092930      -26.2138289811        0.3239141946  MEMB      129             0.0000000000
     16000       129  DOPC      H18S          -10.4206191895      -25.0929371026        1.2146866388  MEMB      129             0.0000000000
     16001       129  DOPC      H18T           -9.7031000545      -26.3598691995        0.2535550949  MEMB      129             0.0000000000
     16002       129  DOPC      C33            -8.8672710743      -23.2252620549      -14.1644445581  MEMB      129             0.0000000000
     16003       129  DOPC      H3X            -9.3577860834      -22.5632309392      -13.4335559054  MEMB      129             0.0000000000
     16004       129  DOPC      H3Y            -9.2729330386      -23.0052968423      -15.1675299982  MEMB      129             0.0000000000
     16005       129  DOPC      C34            -7.3413385675      -22.9850745593      -14.0933851261  MEMB      129             0.0000000000
     16006       129  DOPC      H4X            -6.7998660685      -23.6292355909      -14.8119884398  MEMB      129             0.0000000000
     16007       129  DOPC      H4Y            -7.0075528751      -23.2898733176      -13.0716570873  MEMB      129             0.0000000000
     16008       129  DOPC      C35            -6.9083647003      -21.5211141996      -14.2518174935  MEMB      129             0.0000000000
     16009       129  DOPC      H5X            -7.2300878929      -21.1000574640      -15.2262786674  MEMB      129             0.0000000000
     16010       129  DOPC      H5Y            -5.7959020431      -21.4452584364      -14.1882308955  MEMB      129             0.0000000000
     16011       129  DOPC      C36            -7.4842923174      -20.7052759935      -13.1086974327  MEMB      129             0.0000000000
     16012       129  DOPC      H6X            -8.5759327202      -20.8498731696      -12.9960134716  MEMB      129             0.0000000000
     16013       129  DOPC      H6Y            -7.0154423342      -21.0739049573      -12.1674473852  MEMB      129             0.0000000000
     16014       129  DOPC      C37            -7.3251623644      -19.2052899238      -13.2274303906  MEMB      129             0.0000000000
     16015       129  DOPC      H7X            -6.2749126636      -18.9067841438      -13.4351857136  MEMB      129             0.0000000000
     16016       129  DOPC      H7Y            -7.9671115521      -18.8195994158      -14.0543162833  MEMB      129             0.0000000000
     16017       129  DOPC      C38            -7.8054891150      -18.6138714541      -11.9074190260  MEMB      129             0.0000000000
     16018       129  DOPC      H8X            -8.8501614008      -18.9358232979      -11.6985443009  MEMB      129             0.0000000000
     16019       129  DOPC      H8Y            -7.8604432341      -17.5403190250      -12.0680241835  MEMB      129             0.0000000000
     16020       129  DOPC      C39            -6.8604985035      -18.9235379276      -10.7780519859  MEMB      129             0.0000000000
     16021       129  DOPC      H9X            -5.8202721489      -18.6037574778      -10.9412997261  MEMB      129             0.0000000000
     16022       129  DOPC      C310           -7.1680761325      -19.5411132063       -9.6280414366  MEMB      129             0.0000000000
     16023       129  DOPC      H10X           -6.3753998205      -19.6282504369       -8.8723507296  MEMB      129             0.0000000000
     16024       129  DOPC      C311           -8.5142765231      -20.0626931044       -9.1988639223  MEMB      129             0.0000000000
     16025       129  DOPC      H11X           -9.1655180797      -20.2997813410      -10.0717616958  MEMB      129             0.0000000000
     16026       129  DOPC      H11Y           -9.0569309678      -19.2867882008       -8.6163181019  MEMB      129             0.0000000000
     16027       129  DOPC      C312           -8.3968726073      -21.3454831813       -8.3504243931  MEMB      129             0.0000000000
     16028       129  DOPC      H12X           -8.1489914906      -22.1954836151       -9.0260978790  MEMB      129             0.0000000000
     16029       129  DOPC      H12Y           -9.3985965385      -21.5520864317       -7.9166062061  MEMB      129             0.0000000000
     16030       129  DOPC      C313           -7.3744973248      -21.3259619730       -7.1990691286  MEMB      129             0.0000000000
     16031       129  DOPC      H13X           -6.3495623544      -21.2908836069       -7.6285586471  MEMB      129             0.0000000000
     16032       129  DOPC      H13Y           -7.5099868405      -20.4270397631       -6.5649346142  MEMB      129             0.0000000000
     16033       129  DOPC      C314           -7.4688806883      -22.5915978398       -6.3396690530  MEMB      129             0.0000000000
     16034       129  DOPC      H14X           -7.6688278948      -23.4345112594       -7.0356312581  MEMB      129             0.0000000000
     16035       129  DOPC      H14Y           -6.4956449592      -22.7841362085       -5.8352870601  MEMB      129             0.0000000000
     16036       129  DOPC      C315           -8.5677179789      -22.5333534038       -5.2707654651  MEMB      129             0.0000000000
     16037       129  DOPC      H15X           -8.7028519329      -23.5284597712       -4.8006873751  MEMB      129             0.0000000000
     16038       129  DOPC      H15Y           -9.5192941806      -22.2772305443       -5.7576785129  MEMB      129             0.0000000000
     16039       129  DOPC      C316           -8.3151632302      -21.4795126275       -4.1932659005  MEMB      129             0.0000000000
     16040       129  DOPC      H16X           -7.2304600392      -21.2376420485       -4.1972744182  MEMB      129             0.0000000000
     16041       129  DOPC      H16Y           -8.8842166309      -20.5618718575       -4.4698361222  MEMB      129             0.0000000000
     16042       129  DOPC      C317           -8.6947597718      -21.9132244418       -2.7765516410  MEMB      129             0.0000000000
     16043       129  DOPC      H17X           -8.9132054373      -20.9988685460       -2.1769402558  MEMB      129             0.0000000000
     16044       129  DOPC      H17Y           -9.6277363358      -22.5191402983       -2.8116670935  MEMB      129             0.0000000000
     16045       129  DOPC      C318           -7.5615673968      -22.6752649842       -2.0809794541  MEMB      129             0.0000000000
     16046       129  DOPC      H18X           -7.2701930001      -23.5739178747       -2.6626835225  MEMB      129             0.0000000000
     16047       129  DOPC      H18Y           -6.6637429022      -22.0284896285       -1.9854439104  MEMB      129             0.0000000000
     16048       129  DOPC      H18Z           -7.8673140008      -22.9931298109       -1.0630006731  MEMB      129             0.0000000000
     16049       130  DOPC      N              10.5693456713       21.5524526477      -20.9629446970  MEMB      130             0.0000000000
     16050       130  DOPC      C12            11.1775136098       20.9336165415      -19.7067010689  MEMB      130             0.0000000000
     16051       130  DOPC      H12A           12.0138934535       20.3130692861      -19.9741308638  MEMB      130             0.0000000000
     16052       130  DOPC      H12B           10.4227036634       20.2915656482      -19.2444044153  MEMB      130             0.0000000000
     16053       130  DOPC      C13             9.2343097529       22.1067876049      -20.5604564807  MEMB      130             0.0000000000
     16054       130  DOPC      H13A            9.3527091075       22.6883125638      -19.6384835751  MEMB      130             0.0000000000
     16055       130  DOPC      H13B            8.7477280566       22.7236533051      -21.2950316323  MEMB      130             0.0000000000
     16056       130  DOPC      H13C            8.5666679778       21.3015330007      -20.2276425355  MEMB      130             0.0000000000
     16057       130  DOPC      C14            10.3969910073       20.5009283005      -22.0192615839  MEMB      130             0.0000000000
     16058       130  DOPC      H14A           11.2912862510       19.9040047126      -22.1586630611  MEMB      130             0.0000000000
     16059       130  DOPC      H14B            9.6023562557       19.8064317930      -21.7367697752  MEMB      130             0.0000000000
     16060       130  DOPC      H14C           10.1125852089       20.9284837866      -22.9741916271  MEMB      130             0.0000000000
     16061       130  DOPC      C15            11.4812237129       22.6442362323      -21.4330923057  MEMB      130             0.0000000000
     16062       130  DOPC      H15A           12.4076045036       22.2044107164      -21.7958936246  MEMB      130             0.0000000000
     16063       130  DOPC      H15B           11.7328376259       23.2960679000      -20.6014435668  MEMB      130             0.0000000000
     16064       130  DOPC      H15C           11.0619490983       23.2009706785      -22.2559191647  MEMB      130             0.0000000000
     16065       130  DOPC      C11            11.6394161182       21.9175413902      -18.6010968527  MEMB      130             0.0000000000
     16066       130  DOPC      H11A           12.2812870372       21.3894897619      -17.8561188092  MEMB      130             0.0000000000
     16067       130  DOPC      H11B           12.3007346259       22.7133618672      -19.0036552399  MEMB      130             0.0000000000
     16068       130  DOPC      P               9.5367354340       21.5921578168      -17.1083676593  MEMB      130             0.0000000000
     16069       130  DOPC      O13             8.5349708365       21.0275777155      -18.0309798478  MEMB      130             0.0000000000
     16070       130  DOPC      O14             9.0464439153       22.3368639574      -15.9362938732  MEMB      130             0.0000000000
     16071       130  DOPC      O12            10.5086584353       22.5181971092      -17.9773733943  MEMB      130             0.0000000000
     16072       130  DOPC      O11            10.4727077281       20.3814680911      -16.6742530314  MEMB      130             0.0000000000
     16073       130  DOPC      C1              9.9075601075       19.0976632293      -16.3787656451  MEMB      130             0.0000000000
     16074       130  DOPC      HA             10.2417241321       18.3707037085      -17.1499843872  MEMB      130             0.0000000000
     16075       130  DOPC      HB              8.7925530452       19.0934829565      -16.3924178955  MEMB      130             0.0000000000
     16076       130  DOPC      C2             10.3763778917       18.5910648589      -14.9890150422  MEMB      130             0.0000000000
     16077       130  DOPC      HS              9.9204478006       17.5977345276      -14.7742326060  MEMB      130             0.0000000000
     16078       130  DOPC      O21            10.0144701080       19.5241532598      -13.9604571636  MEMB      130             0.0000000000
     16079       130  DOPC      C21             8.7251552938       19.5729789427      -13.6787468343  MEMB      130             0.0000000000
     16080       130  DOPC      O22             7.8658708313       18.8337909983      -14.1296960125  MEMB      130             0.0000000000
     16081       130  DOPC      C22             8.4831488752       20.6336078792      -12.6019837064  MEMB      130             0.0000000000
     16082       130  DOPC      H2R             7.5316446067       20.3879856359      -12.0868061280  MEMB      130             0.0000000000
     16083       130  DOPC      H2S             8.3676865705       21.6021062767      -13.1344860504  MEMB      130             0.0000000000
     16084       130  DOPC      C3             11.9140058613       18.3925842471      -14.9856329591  MEMB      130             0.0000000000
     16085       130  DOPC      HX             12.3694732015       19.2914570308      -15.4624649415  MEMB      130             0.0000000000
     16086       130  DOPC      HY             12.1509051320       17.5311561862      -15.6469692284  MEMB      130             0.0000000000
     16087       130  DOPC      O31            12.3904661921       18.1301926066      -13.6452858338  MEMB      130             0.0000000000
     16088       130  DOPC      C31            13.0086900378       19.1423806764      -13.0606258563  MEMB      130             0.0000000000
     16089       130  DOPC      O32            13.4207954880       20.1461639897      -13.6103108027  MEMB      130             0.0000000000
     16090       130  DOPC      C32            13.1321847564       18.8857481227      -11.5767945869  MEMB      130             0.0000000000
     16091       130  DOPC      H2X            12.1155513858       18.9046171587      -11.1323405278  MEMB      130             0.0000000000
     16092       130  DOPC      H2Y            13.5590266086       17.8749356950      -11.4317321642  MEMB      130             0.0000000000
     16093       130  DOPC      C23             9.6332038465       20.7359310677      -11.5717626666  MEMB      130             0.0000000000
     16094       130  DOPC      H3R            10.6257540250       20.7329143130      -12.0805574606  MEMB      130             0.0000000000
     16095       130  DOPC      H3S             9.6075186471       19.8606366251      -10.8868341585  MEMB      130             0.0000000000
     16096       130  DOPC      C24             9.5899288608       22.0369684415      -10.7701798566  MEMB      130             0.0000000000
     16097       130  DOPC      H4R             8.6023438871       22.1564817100      -10.2740854314  MEMB      130             0.0000000000
     16098       130  DOPC      H4S             9.7213070930       22.8849975177      -11.4779087150  MEMB      130             0.0000000000
     16099       130  DOPC      C25            10.7056059777       22.0741109361       -9.7281600413  MEMB      130             0.0000000000
     16100       130  DOPC      H5R            11.6535156989       21.6868534961      -10.1620463412  MEMB      130             0.0000000000
     16101       130  DOPC      H5S            10.4172944121       21.3805365197       -8.9088512768  MEMB      130             0.0000000000
     16102       130  DOPC      C26            10.9689204561       23.4837182262       -9.1902704827  MEMB      130             0.0000000000
     16103       130  DOPC      H6R            10.0071173401       24.0259714264       -9.0582242208  MEMB      130             0.0000000000
     16104       130  DOPC      H6S            11.5524655094       24.0570622718       -9.9458985012  MEMB      130             0.0000000000
     16105       130  DOPC      C27            11.7282598818       23.4625590405       -7.8546934647  MEMB      130             0.0000000000
     16106       130  DOPC      H7R            11.8834047690       24.5112864998       -7.5208279387  MEMB      130             0.0000000000
     16107       130  DOPC      H7S            12.7266024642       23.0089887919       -8.0378123971  MEMB      130             0.0000000000
     16108       130  DOPC      C28            11.0597584714       22.6576839788       -6.7185613432  MEMB      130             0.0000000000
     16109       130  DOPC      H8R            11.6106689952       22.8845039810       -5.7784405680  MEMB      130             0.0000000000
     16110       130  DOPC      H8S            11.2129039896       21.5745981097       -6.9131944872  MEMB      130             0.0000000000
     16111       130  DOPC      C29             9.5829503107       22.9527472894       -6.6263950831  MEMB      130             0.0000000000
     16112       130  DOPC      H9R             9.0156747072       22.7252293247       -7.5410464831  MEMB      130             0.0000000000
     16113       130  DOPC      C210            8.8869531097       23.3266625181       -5.5447993890  MEMB      130             0.0000000000
     16114       130  DOPC      H10R            7.8041616301       23.4918070649       -5.6436173761  MEMB      130             0.0000000000
     16115       130  DOPC      C211            9.4205286693       23.5327943382       -4.1545338618  MEMB      130             0.0000000000
     16116       130  DOPC      H11R            9.2825823597       24.5832601521       -3.8115616718  MEMB      130             0.0000000000
     16117       130  DOPC      H11S           10.5040427155       23.2929112355       -4.0586796632  MEMB      130             0.0000000000
     16118       130  DOPC      C212            8.6236646754       22.5951474022       -3.2568095271  MEMB      130             0.0000000000
     16119       130  DOPC      H12R            7.5338402649       22.8105089672       -3.3441477079  MEMB      130             0.0000000000
     16120       130  DOPC      H12S            8.9048221088       22.8152472340       -2.2094388360  MEMB      130             0.0000000000
     16121       130  DOPC      C213            8.8834136723       21.1103188200       -3.5648887773  MEMB      130             0.0000000000
     16122       130  DOPC      H13R            9.9743590300       20.9084304315       -3.4838456755  MEMB      130             0.0000000000
     16123       130  DOPC      H13S            8.5816005541       20.8773632598       -4.6094034992  MEMB      130             0.0000000000
     16124       130  DOPC      C214            8.0917235239       20.2119569372       -2.6143021168  MEMB      130             0.0000000000
     16125       130  DOPC      H14R            7.4148930468       20.8944244120       -2.0465043004  MEMB      130             0.0000000000
     16126       130  DOPC      H14S            8.7698315547       19.7860405219       -1.8549783945  MEMB      130             0.0000000000
     16127       130  DOPC      C215            7.1732939758       19.1752066398       -3.3044370160  MEMB      130             0.0000000000
     16128       130  DOPC      H15R            6.6574710205       19.7170151105       -4.1266116082  MEMB      130             0.0000000000
     16129       130  DOPC      H15S            6.3835698944       18.8813933110       -2.5851193128  MEMB      130             0.0000000000
     16130       130  DOPC      C216            7.7934064614       17.8912004876       -3.9060559269  MEMB      130             0.0000000000
     16131       130  DOPC      H16R            8.3081598600       18.1827069555       -4.8492307692  MEMB      130             0.0000000000
     16132       130  DOPC      H16S            6.9909517034       17.1637699003       -4.1652891350  MEMB      130             0.0000000000
     16133       130  DOPC      C217            8.8364388097       17.1688636132       -3.0489595574  MEMB      130             0.0000000000
     16134       130  DOPC      H17R            9.4160523247       17.9759911382       -2.6340847674  MEMB      130             0.0000000000
     16135       130  DOPC      H17S            9.5264775703       16.5332461053       -3.6415693626  MEMB      130             0.0000000000
     16136       130  DOPC      C218            8.3469514993       16.4278378947       -1.8299942506  MEMB      130             0.0000000000
     16137       130  DOPC      H18R            8.1881097574       17.2047023476       -1.0730872427  MEMB      130             0.0000000000
     16138       130  DOPC      H18S            9.0844575091       15.7399326671       -1.3909106854  MEMB      130             0.0000000000
     16139       130  DOPC      H18T            7.4123320051       15.8654085318       -2.0437344656  MEMB      130             0.0000000000
     16140       130  DOPC      C33            14.0377359230       19.9423183453      -10.9208855960  MEMB      130             0.0000000000
     16141       130  DOPC      H3X            13.5458741372       20.9407929239      -10.9395941950  MEMB      130             0.0000000000
     16142       130  DOPC      H3Y            14.9965171714       20.0337435007      -11.4824084896  MEMB      130             0.0000000000
     16143       130  DOPC      C34            14.3280883894       19.5216112220       -9.4873210826  MEMB      130             0.0000000000
     16144       130  DOPC      H4X            14.8228854570       18.5285669252       -9.5176612682  MEMB      130             0.0000000000
     16145       130  DOPC      H4Y            13.3533130186       19.3854195382       -8.9701776738  MEMB      130             0.0000000000
     16146       130  DOPC      C35            15.2273536047       20.4800349163       -8.7030288231  MEMB      130             0.0000000000
     16147       130  DOPC      H5X            14.7670951111       21.4911205083       -8.6419830544  MEMB      130             0.0000000000
     16148       130  DOPC      H5Y            16.1978184531       20.5747660384       -9.2414940378  MEMB      130             0.0000000000
     16149       130  DOPC      C36            15.4873039426       19.9326442477       -7.2960228910  MEMB      130             0.0000000000
     16150       130  DOPC      H6X            15.8130916864       18.8714010788       -7.4008805225  MEMB      130             0.0000000000
     16151       130  DOPC      H6Y            16.3175783822       20.4801539735       -6.7989533820  MEMB      130             0.0000000000
     16152       130  DOPC      C37            14.2413768583       19.9696233211       -6.3959011037  MEMB      130             0.0000000000
     16153       130  DOPC      H7X            14.2211948527       20.9192049478       -5.8329699670  MEMB      130             0.0000000000
     16154       130  DOPC      H7Y            13.3176154964       19.9956175708       -7.0102202141  MEMB      130             0.0000000000
     16155       130  DOPC      C38            14.1441592490       18.7324239549       -5.4884375301  MEMB      130             0.0000000000
     16156       130  DOPC      H8X            14.0198240524       17.8564381424       -6.1649644411  MEMB      130             0.0000000000
     16157       130  DOPC      H8Y            13.1968886946       18.7814464796       -4.9126506518  MEMB      130             0.0000000000
     16158       130  DOPC      C39            15.3373557532       18.4838046483       -4.5945294325  MEMB      130             0.0000000000
     16159       130  DOPC      H9X            15.7015136607       17.4446107410       -4.6201065471  MEMB      130             0.0000000000
     16160       130  DOPC      C310           15.9807746498       19.3335876452       -3.7711363834  MEMB      130             0.0000000000
     16161       130  DOPC      H10X           16.8336613986       18.9353578783       -3.2067301265  MEMB      130             0.0000000000
     16162       130  DOPC      C311           15.7340592071       20.7888355474       -3.4625732353  MEMB      130             0.0000000000
     16163       130  DOPC      H11X           14.9454873573       21.2549883338       -4.0901033098  MEMB      130             0.0000000000
     16164       130  DOPC      H11Y           16.6649478560       21.3692915996       -3.6266722636  MEMB      130             0.0000000000
     16165       130  DOPC      C312           15.2825556547       21.0057059613       -2.0119968604  MEMB      130             0.0000000000
     16166       130  DOPC      H12X           14.1792818310       20.8710624758       -2.0137626652  MEMB      130             0.0000000000
     16167       130  DOPC      H12Y           15.4187050960       22.0661893879       -1.7333074343  MEMB      130             0.0000000000
     16168       130  DOPC      C313           15.9388191004       20.1513977196       -0.8922950271  MEMB      130             0.0000000000
     16169       130  DOPC      H13X           16.6691146122       19.4015101290       -1.2390536750  MEMB      130             0.0000000000
     16170       130  DOPC      H13Y           16.5816935249       20.8963363935       -0.3772531067  MEMB      130             0.0000000000
     16171       130  DOPC      C314           14.8063955888       19.7195834020        0.0853567253  MEMB      130             0.0000000000
     16172       130  DOPC      H14X           14.6961969352       20.6413138245        0.6966533724  MEMB      130             0.0000000000
     16173       130  DOPC      H14Y           13.8728730016       19.6464579243       -0.4810902354  MEMB      130             0.0000000000
     16174       130  DOPC      C315           14.6813707075       18.5165920768        1.0836123510  MEMB      130             0.0000000000
     16175       130  DOPC      H15X           13.7880049838       18.7196515947        1.6797407403  MEMB      130             0.0000000000
     16176       130  DOPC      H15Y           15.3582029903       18.6274713717        1.9113234586  MEMB      130             0.0000000000
     16177       130  DOPC      C316           14.8054767361       17.0227559352        0.6786474948  MEMB      130             0.0000000000
     16178       130  DOPC      H16X           15.2377453522       16.9902702651       -0.3494916374  MEMB      130             0.0000000000
     16179       130  DOPC      H16Y           15.5872807180       16.6188371790        1.3592887278  MEMB      130             0.0000000000
     16180       130  DOPC      C317           13.6772006837       15.9145996115        0.7297529502  MEMB      130             0.0000000000
     16181       130  DOPC      H17X           13.2198047962       15.8632499700       -0.2767331311  MEMB      130             0.0000000000
     16182       130  DOPC      H17Y           14.3506861940       15.0835034681        0.9331018485  MEMB      130             0.0000000000
     16183       130  DOPC      C318           12.6431794406       15.4107620233        1.7700920548  MEMB      130             0.0000000000
     16184       130  DOPC      H18X           12.6285501436       14.3107841978        1.8039218949  MEMB      130             0.0000000000
     16185       130  DOPC      H18Y           12.8521758835       15.5633646946        2.8220053610  MEMB      130             0.0000000000
     16186       130  DOPC      H18Z           11.6091090336       15.6450159737        1.4926458525  MEMB      130             0.0000000000
     16187       131  DOPE      N             -18.0287631025       11.9998366441      -18.1373866646  MEMB      131             0.0000000000
     16188       131  DOPE      HN1           -17.4528825827       12.6771795266      -17.5736738548  MEMB      131             0.0000000000
     16189       131  DOPE      HN2           -17.5156076957       11.1146746777      -18.3538390113  MEMB      131             0.0000000000
     16190       131  DOPE      HN3           -18.3152428756       12.4750793276      -19.0236458261  MEMB      131             0.0000000000
     16191       131  DOPE      C12           -19.3272524072       11.7518567735      -17.4193811310  MEMB      131             0.0000000000
     16192       131  DOPE      H12A          -19.6122374935       12.6998206866      -16.9114244942  MEMB      131             0.0000000000
     16193       131  DOPE      H12B          -19.1416128949       10.9907775118      -16.6375371904  MEMB      131             0.0000000000
     16194       131  DOPE      C11           -20.4471041693       11.2967668391      -18.4052258037  MEMB      131             0.0000000000
     16195       131  DOPE      H11A          -21.4198071670       11.3085788122      -17.8579016639  MEMB      131             0.0000000000
     16196       131  DOPE      H11B          -20.2150132162       10.2423108045      -18.6603210597  MEMB      131             0.0000000000
     16197       131  DOPE      P             -21.0797989332       13.4784918175      -19.7053653975  MEMB      131             0.0000000000
     16198       131  DOPE      O13           -22.3665529568       13.5987331538      -18.9851764420  MEMB      131             0.0000000000
     16199       131  DOPE      O14           -20.9154457782       14.1294496808      -21.0279503397  MEMB      131             0.0000000000
     16200       131  DOPE      O11           -19.9006136998       14.0115940620      -18.8132368133  MEMB      131             0.0000000000
     16201       131  DOPE      O12           -20.5450998119       11.9989695570      -19.6600583520  MEMB      131             0.0000000000
     16202       131  DOPE      C1            -18.8675572587       14.9322454761      -19.1342546531  MEMB      131             0.0000000000
     16203       131  DOPE      HA            -18.9323635897       15.2498852297      -20.1980901687  MEMB      131             0.0000000000
     16204       131  DOPE      HB            -17.8628465524       14.4822247943      -19.0120127829  MEMB      131             0.0000000000
     16205       131  DOPE      C2            -19.0279776129       16.2109830741      -18.2560984543  MEMB      131             0.0000000000
     16206       131  DOPE      HS            -18.6846525647       17.0661348384      -18.8834315691  MEMB      131             0.0000000000
     16207       131  DOPE      O21           -18.3607324844       16.3069463579      -16.9945868692  MEMB      131             0.0000000000
     16208       131  DOPE      C21           -17.9574971269       15.2678278947      -16.3348491270  MEMB      131             0.0000000000
     16209       131  DOPE      O22           -17.3147211126       14.3220600294      -16.7672954747  MEMB      131             0.0000000000
     16210       131  DOPE      C22           -18.4804851942       15.4113513590      -14.9156529375  MEMB      131             0.0000000000
     16211       131  DOPE      H2R           -19.5751661819       15.5515672274      -15.0030257018  MEMB      131             0.0000000000
     16212       131  DOPE      H2S           -18.0266945448       16.3333001864      -14.5001810126  MEMB      131             0.0000000000
     16213       131  DOPE      C3            -20.5244806531       16.3924565879      -17.9463699952  MEMB      131             0.0000000000
     16214       131  DOPE      HX            -21.0416279938       16.0948951411      -18.8802200526  MEMB      131             0.0000000000
     16215       131  DOPE      HY            -20.7496265027       17.4724473826      -17.7960850808  MEMB      131             0.0000000000
     16216       131  DOPE      O31           -21.0313726370       15.5240442076      -16.8894479920  MEMB      131             0.0000000000
     16217       131  DOPE      C31           -22.0575816884       16.0822558378      -16.2687181820  MEMB      131             0.0000000000
     16218       131  DOPE      O32           -22.3713588119       17.2491646024      -16.3281385369  MEMB      131             0.0000000000
     16219       131  DOPE      C32           -22.8837603887       15.1973981423      -15.3904432991  MEMB      131             0.0000000000
     16220       131  DOPE      H2X           -22.7326431830       15.5600308448      -14.3491491852  MEMB      131             0.0000000000
     16221       131  DOPE      H2Y           -23.9379916382       15.4290008716      -15.6777918426  MEMB      131             0.0000000000
     16222       131  DOPE      C23           -18.1730130341       14.1969045752      -14.0202007748  MEMB      131             0.0000000000
     16223       131  DOPE      H3R           -17.0636079028       14.0790037330      -13.9678176314  MEMB      131             0.0000000000
     16224       131  DOPE      H3S           -18.5900105988       13.2581665437      -14.4472547199  MEMB      131             0.0000000000
     16225       131  DOPE      C24           -18.6928411921       14.3415067592      -12.5797078456  MEMB      131             0.0000000000
     16226       131  DOPE      H4R           -19.8014417514       14.2965645715      -12.5389520718  MEMB      131             0.0000000000
     16227       131  DOPE      H4S           -18.3658010833       15.3244540669      -12.1886982951  MEMB      131             0.0000000000
     16228       131  DOPE      C25           -18.0642268071       13.2232431063      -11.7444418190  MEMB      131             0.0000000000
     16229       131  DOPE      H5R           -16.9652655413       13.3393235410      -11.8692023481  MEMB      131             0.0000000000
     16230       131  DOPE      H5S           -18.3672258171       12.2471882250      -12.1818879115  MEMB      131             0.0000000000
     16231       131  DOPE      C26           -18.3237329823       13.1764627214      -10.2351243026  MEMB      131             0.0000000000
     16232       131  DOPE      H6R           -19.2514345192       13.7242306152       -9.9630237646  MEMB      131             0.0000000000
     16233       131  DOPE      H6S           -17.4697412533       13.6861930776       -9.7380230854  MEMB      131             0.0000000000
     16234       131  DOPE      C27           -18.4142416481       11.7233790437       -9.7221265146  MEMB      131             0.0000000000
     16235       131  DOPE      H7R           -17.5842085199       11.0979226847      -10.1034849897  MEMB      131             0.0000000000
     16236       131  DOPE      H7S           -19.3472895005       11.2997849479      -10.1641725741  MEMB      131             0.0000000000
     16237       131  DOPE      C28           -18.5115947769       11.6018207545       -8.1863073236  MEMB      131             0.0000000000
     16238       131  DOPE      H8R           -18.9719150504       10.6197460457       -7.9376456547  MEMB      131             0.0000000000
     16239       131  DOPE      H8S           -19.2379474422       12.3813995877       -7.9050428348  MEMB      131             0.0000000000
     16240       131  DOPE      C29           -17.3279562582       11.8134255322       -7.2904179254  MEMB      131             0.0000000000
     16241       131  DOPE      H9R           -16.7672367186       10.9168769308       -6.9918379239  MEMB      131             0.0000000000
     16242       131  DOPE      C210          -16.8714584315       13.0069514829       -6.8822106484  MEMB      131             0.0000000000
     16243       131  DOPE      H10R          -16.0032439938       13.0258856204       -6.2078323869  MEMB      131             0.0000000000
     16244       131  DOPE      C211          -17.4483205536       14.3489046421       -7.2458005410  MEMB      131             0.0000000000
     16245       131  DOPE      H11R          -18.3644099843       14.2565345523       -7.8666920822  MEMB      131             0.0000000000
     16246       131  DOPE      H11S          -16.7072335653       14.9267292019       -7.8413629178  MEMB      131             0.0000000000
     16247       131  DOPE      C212          -17.8483011085       15.1573553705       -6.0170687230  MEMB      131             0.0000000000
     16248       131  DOPE      H12R          -18.5091147665       14.5225697329       -5.3970955256  MEMB      131             0.0000000000
     16249       131  DOPE      H12S          -18.4767876555       16.0152876231       -6.3307271340  MEMB      131             0.0000000000
     16250       131  DOPE      C213          -16.6194422532       15.6512819629       -5.2415498006  MEMB      131             0.0000000000
     16251       131  DOPE      H13R          -15.9734510551       16.2421063633       -5.9269739717  MEMB      131             0.0000000000
     16252       131  DOPE      H13S          -16.0275464639       14.7666080493       -4.9174922888  MEMB      131             0.0000000000
     16253       131  DOPE      C214          -16.9536599124       16.4769341752       -3.9935693233  MEMB      131             0.0000000000
     16254       131  DOPE      H14R          -17.3198482647       17.4915325139       -4.2625270338  MEMB      131             0.0000000000
     16255       131  DOPE      H14S          -16.0236343863       16.5922288495       -3.3941787172  MEMB      131             0.0000000000
     16256       131  DOPE      C215          -18.0496992953       15.8339038467       -3.1525239223  MEMB      131             0.0000000000
     16257       131  DOPE      H15R          -18.0541916406       14.7583952263       -3.3642633344  MEMB      131             0.0000000000
     16258       131  DOPE      H15S          -19.0258219350       16.2291877442       -3.5029634351  MEMB      131             0.0000000000
     16259       131  DOPE      C216          -17.8446206941       16.0003834313       -1.6478516261  MEMB      131             0.0000000000
     16260       131  DOPE      H16R          -17.6106496182       17.0655165985       -1.4710598180  MEMB      131             0.0000000000
     16261       131  DOPE      H16S          -16.9340238920       15.4313748646       -1.3511858790  MEMB      131             0.0000000000
     16262       131  DOPE      C217          -19.0297753548       15.5147408815       -0.7849167163  MEMB      131             0.0000000000
     16263       131  DOPE      H17R          -18.8174846920       15.7735940445        0.2778044825  MEMB      131             0.0000000000
     16264       131  DOPE      H17S          -19.0473974655       14.4030662887       -0.8529111235  MEMB      131             0.0000000000
     16265       131  DOPE      C218          -20.4313931029       16.0328387640       -1.1487526680  MEMB      131             0.0000000000
     16266       131  DOPE      H18R          -20.5377194559       17.1062804198       -0.8864227051  MEMB      131             0.0000000000
     16267       131  DOPE      H18S          -21.2108162960       15.4713012130       -0.5923505524  MEMB      131             0.0000000000
     16268       131  DOPE      H18T          -20.6437130332       15.9138566218       -2.2311964178  MEMB      131             0.0000000000
     16269       131  DOPE      C33           -22.7630199013       13.6807513922      -15.3959725011  MEMB      131             0.0000000000
     16270       131  DOPE      H3X           -21.8143151807       13.3784853178      -14.8997545160  MEMB      131             0.0000000000
     16271       131  DOPE      H3Y           -22.7695105783       13.2026973050      -16.4028076860  MEMB      131             0.0000000000
     16272       131  DOPE      C34           -24.0258045675       13.2922337946      -14.6152210404  MEMB      131             0.0000000000
     16273       131  DOPE      H4X           -24.2849019246       14.0805546504      -13.8757433247  MEMB      131             0.0000000000
     16274       131  DOPE      H4Y           -24.8816060177       13.2293917188      -15.3250756399  MEMB      131             0.0000000000
     16275       131  DOPE      C35           -23.8562891374       11.9812290149      -13.8998132152  MEMB      131             0.0000000000
     16276       131  DOPE      H5X           -23.6575339923       11.3774253088      -14.7858371002  MEMB      131             0.0000000000
     16277       131  DOPE      H5Y           -24.7928062381       11.6414355696      -13.4012908359  MEMB      131             0.0000000000
     16278       131  DOPE      C36           -22.6796802532       11.9408191850      -12.9359534619  MEMB      131             0.0000000000
     16279       131  DOPE      H6X           -21.7025492456       11.8848131011      -13.4619124472  MEMB      131             0.0000000000
     16280       131  DOPE      H6Y           -22.7416998285       10.9914816699      -12.3625052553  MEMB      131             0.0000000000
     16281       131  DOPE      C37           -22.7226259060       13.1849144233      -12.0365481694  MEMB      131             0.0000000000
     16282       131  DOPE      H7X           -22.2035357131       14.0245191473      -12.5467467660  MEMB      131             0.0000000000
     16283       131  DOPE      H7Y           -23.7836104338       13.5044778125      -11.8940831837  MEMB      131             0.0000000000
     16284       131  DOPE      C38           -22.1390498238       12.9254107001      -10.6638516201  MEMB      131             0.0000000000
     16285       131  DOPE      H8X           -22.1005865463       13.8709201898      -10.0752348758  MEMB      131             0.0000000000
     16286       131  DOPE      H8Y           -21.0924810690       12.5575314483      -10.7829493742  MEMB      131             0.0000000000
     16287       131  DOPE      C39           -23.0539082408       11.8935782499      -10.0475506966  MEMB      131             0.0000000000
     16288       131  DOPE      H9X           -23.9538194878       11.6307334603      -10.6201681106  MEMB      131             0.0000000000
     16289       131  DOPE      C310          -22.8412322099       11.2913063278       -8.8884716224  MEMB      131             0.0000000000
     16290       131  DOPE      H10X          -23.5194324475       10.5094768372       -8.5184521287  MEMB      131             0.0000000000
     16291       131  DOPE      C311          -21.6470584354       11.5985826814       -8.0671409450  MEMB      131             0.0000000000
     16292       131  DOPE      H11X          -20.9573518917       10.7333043497       -8.0887890933  MEMB      131             0.0000000000
     16293       131  DOPE      H11Y          -21.1083563218       12.4990623978       -8.4461054085  MEMB      131             0.0000000000
     16294       131  DOPE      C312          -22.0677014929       11.9200746915       -6.6456232933  MEMB      131             0.0000000000
     16295       131  DOPE      H12X          -22.5817588457       11.0418700626       -6.1947533321  MEMB      131             0.0000000000
     16296       131  DOPE      H12Y          -22.7596615178       12.7946104628       -6.6500792899  MEMB      131             0.0000000000
     16297       131  DOPE      C313          -20.8508796085       12.2789653580       -5.8115341176  MEMB      131             0.0000000000
     16298       131  DOPE      H13X          -20.1145744381       11.4468133744       -5.9013855876  MEMB      131             0.0000000000
     16299       131  DOPE      H13Y          -20.3710884962       13.1975934972       -6.2232172765  MEMB      131             0.0000000000
     16300       131  DOPE      C314          -21.2160289995       12.5039667145       -4.3493286574  MEMB      131             0.0000000000
     16301       131  DOPE      H14X          -21.5422217179       11.5336385789       -3.9155411282  MEMB      131             0.0000000000
     16302       131  DOPE      H14Y          -22.0656273242       13.2199599075       -4.2935059693  MEMB      131             0.0000000000
     16303       131  DOPE      C315          -20.0192234503       13.0405496495       -3.5587546665  MEMB      131             0.0000000000
     16304       131  DOPE      H15X          -20.2655427529       13.0593144373       -2.4781880897  MEMB      131             0.0000000000
     16305       131  DOPE      H15Y          -19.8849530787       14.0894895155       -3.8938837923  MEMB      131             0.0000000000
     16306       131  DOPE      C316          -18.7680581746       12.1827490799       -3.8322040424  MEMB      131             0.0000000000
     16307       131  DOPE      H16X          -18.3853576652       12.4005877663       -4.8472793793  MEMB      131             0.0000000000
     16308       131  DOPE      H16Y          -19.1244732653       11.1313405590       -3.8637887878  MEMB      131             0.0000000000
     16309       131  DOPE      C317          -17.5821765948       12.2454385085       -2.8570660390  MEMB      131             0.0000000000
     16310       131  DOPE      H17X          -17.0068198367       13.1866678061       -2.9669075988  MEMB      131             0.0000000000
     16311       131  DOPE      H17Y          -17.9523886432       12.1884209854       -1.8106776940  MEMB      131             0.0000000000
     16312       131  DOPE      C318          -16.6055593574       11.1042896632       -3.1290041675  MEMB      131             0.0000000000
     16313       131  DOPE      H18X          -17.1595129282       10.1690127986       -3.1475847201  MEMB      131             0.0000000000
     16314       131  DOPE      H18Y          -16.1201913949       11.2175484925       -4.1205807599  MEMB      131             0.0000000000
     16315       131  DOPE      H18Z          -15.8387901570       10.9847038613       -2.3410547791  MEMB      131             0.0000000000
     16316       132  23SM      N             -20.4552984357      -15.0678008901      -27.8364061213  MEMB      132             0.0000000000
     16317       132  23SM      C15           -20.2576650275      -15.6780246947      -29.1790928534  MEMB      132             0.0000000000
     16318       132  23SM      H15A          -21.0293699456      -15.3391053563      -29.8547797719  MEMB      132             0.0000000000
     16319       132  23SM      H15B          -20.2951093981      -16.7609049480      -29.1330086996  MEMB      132             0.0000000000
     16320       132  23SM      H15C          -19.3033699337      -15.3640623994      -29.5990644352  MEMB      132             0.0000000000
     16321       132  23SM      C14           -19.3887600473      -15.5816537876      -26.9085869206  MEMB      132             0.0000000000
     16322       132  23SM      H14A          -19.4319353106      -16.6535558103      -26.7908129057  MEMB      132             0.0000000000
     16323       132  23SM      H14B          -19.5639912230      -15.1605509748      -25.9140189153  MEMB      132             0.0000000000
     16324       132  23SM      H14C          -18.4020630090      -15.2415720043      -27.2007235130  MEMB      132             0.0000000000
     16325       132  23SM      C13           -20.2460936287      -13.5928091219      -27.9407113933  MEMB      132             0.0000000000
     16326       132  23SM      H13A          -20.3397535156      -13.1468493837      -26.9476400758  MEMB      132             0.0000000000
     16327       132  23SM      H13B          -21.0004570282      -13.1246447795      -28.5522867232  MEMB      132             0.0000000000
     16328       132  23SM      H13C          -19.2588339025      -13.3232772559      -28.3089732961  MEMB      132             0.0000000000
     16329       132  23SM      C12           -21.8329594413      -15.3686862045      -27.2536018876  MEMB      132             0.0000000000
     16330       132  23SM      H12A          -21.9880919840      -16.4421598310      -27.1927277871  MEMB      132             0.0000000000
     16331       132  23SM      H12B          -22.5996430226      -14.9397192167      -27.8856143751  MEMB      132             0.0000000000
     16332       132  23SM      C11           -22.1190373008      -14.7963522248      -25.8555013495  MEMB      132             0.0000000000
     16333       132  23SM      H11A          -21.3236726374      -15.1687377600      -25.1635093665  MEMB      132             0.0000000000
     16334       132  23SM      H11B          -23.0828796163      -15.2158929668      -25.4930072487  MEMB      132             0.0000000000
     16335       132  23SM      P             -21.9637695841      -12.6287962668      -24.5351785395  MEMB      132             0.0000000000
     16336       132  23SM      O13           -20.6951347964      -13.1130594280      -23.9491344949  MEMB      132             0.0000000000
     16337       132  23SM      O14           -22.0701610303      -11.1742925208      -24.7715386113  MEMB      132             0.0000000000
     16338       132  23SM      O11           -23.2313553183      -13.1551557594      -23.6952809972  MEMB      132             0.0000000000
     16339       132  23SM      O12           -22.1972529205      -13.3628376418      -25.9178046660  MEMB      132             0.0000000000
     16340       132  23SM      C1S           -23.0573865639      -14.0966876324      -22.6116213589  MEMB      132             0.0000000000
     16341       132  23SM      H1S           -22.0893401514      -14.6574038880      -22.6717438816  MEMB      132             0.0000000000
     16342       132  23SM      H1T           -23.8525701496      -14.8735113818      -22.6398941468  MEMB      132             0.0000000000
     16343       132  23SM      NF            -22.8738649647      -14.4604976225      -20.1700806444  MEMB      132             0.0000000000
     16344       132  23SM      HNF           -23.6579728611      -14.8313084854      -19.6740237334  MEMB      132             0.0000000000
     16345       132  23SM      C2S           -23.1595663709      -13.4530543483      -21.1895800769  MEMB      132             0.0000000000
     16346       132  23SM      H2S           -22.3849456939      -12.6551540360      -21.1237219294  MEMB      132             0.0000000000
     16347       132  23SM      C3S           -24.5578778964      -12.8031607623      -20.9305858655  MEMB      132             0.0000000000
     16348       132  23SM      H3S           -25.3639792684      -13.5690459360      -20.9764514749  MEMB      132             0.0000000000
     16349       132  23SM      O3            -24.9629672403      -11.8295034891      -21.9000472284  MEMB      132             0.0000000000
     16350       132  23SM      HO3           -24.3197171802      -11.9339710127      -22.6211194948  MEMB      132             0.0000000000
     16351       132  23SM      C4S           -24.4780787643      -12.2504355619      -19.5174145283  MEMB      132             0.0000000000
     16352       132  23SM      H4S           -23.9325621042      -11.3013732756      -19.4099811978  MEMB      132             0.0000000000
     16353       132  23SM      C5S           -24.9943034711      -12.8429186008      -18.4164847056  MEMB      132             0.0000000000
     16354       132  23SM      H5S           -25.5493987709      -13.7899910546      -18.5161494727  MEMB      132             0.0000000000
     16355       132  23SM      C6S           -24.8981342401      -12.3461672909      -16.9933460289  MEMB      132             0.0000000000
     16356       132  23SM      H6S           -25.8867593991      -12.3616763924      -16.4926809347  MEMB      132             0.0000000000
     16357       132  23SM      H6T           -24.5051570588      -11.3042414807      -16.9162633839  MEMB      132             0.0000000000
     16358       132  23SM      C7S           -23.9218433779      -13.3146090708      -16.2810472543  MEMB      132             0.0000000000
     16359       132  23SM      H7S           -22.8894843758      -13.1292638808      -16.6566228620  MEMB      132             0.0000000000
     16360       132  23SM      H7T           -24.1606919419      -14.3772513346      -16.5226613219  MEMB      132             0.0000000000
     16361       132  23SM      C8S           -23.9122463649      -13.2302764812      -14.7478548041  MEMB      132             0.0000000000
     16362       132  23SM      H8S           -23.8895945334      -12.1686311798      -14.4269239183  MEMB      132             0.0000000000
     16363       132  23SM      H8T           -22.9900139242      -13.7283665238      -14.3672829568  MEMB      132             0.0000000000
     16364       132  23SM      C9S           -25.1218693557      -13.9607856297      -14.1619195188  MEMB      132             0.0000000000
     16365       132  23SM      H9S           -25.1044163988      -15.0331193611      -14.4572659798  MEMB      132             0.0000000000
     16366       132  23SM      H9T           -26.0185193989      -13.4954055426      -14.6120428086  MEMB      132             0.0000000000
     16367       132  23SM      C10S          -25.3043833919      -13.8490206261      -12.6509512765  MEMB      132             0.0000000000
     16368       132  23SM      H10S          -26.1499394418      -14.5095054831      -12.3509531767  MEMB      132             0.0000000000
     16369       132  23SM      H10T          -25.6095760063      -12.8071634105      -12.4182182052  MEMB      132             0.0000000000
     16370       132  23SM      C11S          -24.0892254847      -14.1907933378      -11.7896669092  MEMB      132             0.0000000000
     16371       132  23SM      H11S          -23.1641955865      -13.7124707828      -12.1774310623  MEMB      132             0.0000000000
     16372       132  23SM      H11T          -23.9348285433      -15.2929479644      -11.7922177128  MEMB      132             0.0000000000
     16373       132  23SM      C12S          -24.3495012636      -13.6850560716      -10.3715115710  MEMB      132             0.0000000000
     16374       132  23SM      H12S          -25.4447507644      -13.7537756024      -10.1756943283  MEMB      132             0.0000000000
     16375       132  23SM      H12T          -24.0720815736      -12.6100928175      -10.2970539021  MEMB      132             0.0000000000
     16376       132  23SM      C13S          -23.6580175371      -14.4850433672       -9.2748166913  MEMB      132             0.0000000000
     16377       132  23SM      H13S          -22.5602150835      -14.3124848379       -9.3071974828  MEMB      132             0.0000000000
     16378       132  23SM      H13T          -23.8425449503      -15.5724770610       -9.4302459821  MEMB      132             0.0000000000
     16379       132  23SM      C14S          -24.2322747856      -14.0614673004       -7.9220836821  MEMB      132             0.0000000000
     16380       132  23SM      H14S          -25.3328552901      -14.2221165396       -7.9276575728  MEMB      132             0.0000000000
     16381       132  23SM      H14T          -24.0460971833      -12.9719075005       -7.7843961049  MEMB      132             0.0000000000
     16382       132  23SM      C15S          -23.6365077561      -14.8257144145       -6.7473078134  MEMB      132             0.0000000000
     16383       132  23SM      H15S          -22.5298566547      -14.6905665757       -6.7796881648  MEMB      132             0.0000000000
     16384       132  23SM      H15T          -23.8620708519      -15.9112228338       -6.8452048153  MEMB      132             0.0000000000
     16385       132  23SM      C16S          -24.1679672831      -14.3173677073       -5.4101969286  MEMB      132             0.0000000000
     16386       132  23SM      H16S          -25.1970192573      -14.7007170387       -5.2295172724  MEMB      132             0.0000000000
     16387       132  23SM      H16T          -24.2271944652      -13.2068314774       -5.4615287374  MEMB      132             0.0000000000
     16388       132  23SM      C17S          -23.2443510689      -14.6917465773       -4.2552875664  MEMB      132             0.0000000000
     16389       132  23SM      H17S          -22.1855130007      -14.6018676845       -4.5948627134  MEMB      132             0.0000000000
     16390       132  23SM      H17T          -23.4222098020      -15.7538821204       -3.9690980652  MEMB      132             0.0000000000
     16391       132  23SM      C18S          -23.4263490445      -13.7872099926       -3.0464789399  MEMB      132             0.0000000000
     16392       132  23SM      H18S          -24.4505939283      -13.9046983719       -2.6319838004  MEMB      132             0.0000000000
     16393       132  23SM      H18T          -23.2713593413      -12.7218807332       -3.3273002391  MEMB      132             0.0000000000
     16394       132  23SM      H18U          -22.6853217435      -14.0619949795       -2.2696581933  MEMB      132             0.0000000000
     16395       132  23SM      C1F           -21.6869003170      -15.0150634802      -19.9962068734  MEMB      132             0.0000000000
     16396       132  23SM      OF            -20.7202630421      -14.6644171948      -20.6482761662  MEMB      132             0.0000000000
     16397       132  23SM      C2F           -21.6121671430      -16.1163707753      -19.0084454275  MEMB      132             0.0000000000
     16398       132  23SM      H2F           -21.3853277905      -17.0614021790      -19.5489557282  MEMB      132             0.0000000000
     16399       132  23SM      H2G           -22.5941638284      -16.2318379657      -18.4982618117  MEMB      132             0.0000000000
     16400       132  23SM      C3F           -20.5314763467      -15.8354086234      -17.9566737932  MEMB      132             0.0000000000
     16401       132  23SM      H3F           -20.6965756382      -14.8417989596      -17.4795863875  MEMB      132             0.0000000000
     16402       132  23SM      H3G           -19.5173131805      -15.8224596395      -18.4214517787  MEMB      132             0.0000000000
     16403       132  23SM      C4F           -20.6087749155      -16.9214380297      -16.8849302072  MEMB      132             0.0000000000
     16404       132  23SM      H4F           -20.3955318980      -17.8982770181      -17.3764444562  MEMB      132             0.0000000000
     16405       132  23SM      H4G           -21.6422387491      -16.9671219558      -16.4762113102  MEMB      132             0.0000000000
     16406       132  23SM      C5F           -19.6283936461      -16.7135591517      -15.7436843910  MEMB      132             0.0000000000
     16407       132  23SM      H5F           -18.6207480294      -16.5012009185      -16.1745038639  MEMB      132             0.0000000000
     16408       132  23SM      H5G           -19.5946166684      -17.6660662476      -15.1645222130  MEMB      132             0.0000000000
     16409       132  23SM      C6F           -19.9858930001      -15.5961624900      -14.7613695498  MEMB      132             0.0000000000
     16410       132  23SM      H6F           -20.9874442341      -15.7961804377      -14.3315611362  MEMB      132             0.0000000000
     16411       132  23SM      H6G           -20.0550781174      -14.6221746533      -15.2915971655  MEMB      132             0.0000000000
     16412       132  23SM      C7F           -18.9027677575      -15.5053290381      -13.6756391488  MEMB      132             0.0000000000
     16413       132  23SM      H7F           -18.3473434428      -14.5618273784      -13.7661821631  MEMB      132             0.0000000000
     16414       132  23SM      H7G           -18.1448087997      -16.2815918515      -13.8844132824  MEMB      132             0.0000000000
     16415       132  23SM      C8F           -19.3650544685      -15.6090669299      -12.2260252129  MEMB      132             0.0000000000
     16416       132  23SM      H8F           -19.8036775094      -14.6376321972      -11.9062280421  MEMB      132             0.0000000000
     16417       132  23SM      H8G           -18.4648824537      -15.8008094075      -11.5978065507  MEMB      132             0.0000000000
     16418       132  23SM      C9F           -20.3578037247      -16.7266645888      -11.9448837937  MEMB      132             0.0000000000
     16419       132  23SM      H9F           -19.9143529338      -17.6942631431      -12.2533817235  MEMB      132             0.0000000000
     16420       132  23SM      H9G           -21.3049177139      -16.5922907420      -12.5068123924  MEMB      132             0.0000000000
     16421       132  23SM      C10F          -20.6723754796      -16.7553578650      -10.4600346587  MEMB      132             0.0000000000
     16422       132  23SM      H10F          -21.2615582539      -15.8537850617      -10.1858241637  MEMB      132             0.0000000000
     16423       132  23SM      H10G          -19.7135862173      -16.7116110346       -9.8975620532  MEMB      132             0.0000000000
     16424       132  23SM      C11F          -21.4294799691      -18.0153173693      -10.0808349179  MEMB      132             0.0000000000
     16425       132  23SM      H11F          -21.0448783619      -18.8744346186      -10.6817607719  MEMB      132             0.0000000000
     16426       132  23SM      H11G          -22.5046925309      -17.8894529634      -10.3389753011  MEMB      132             0.0000000000
     16427       132  23SM      C12F          -21.2625057258      -18.3727649714       -8.6072338430  MEMB      132             0.0000000000
     16428       132  23SM      H12F          -20.3408654574      -18.9897987281       -8.4958474891  MEMB      132             0.0000000000
     16429       132  23SM      H12G          -22.1364341667      -19.0041922746       -8.3368471946  MEMB      132             0.0000000000
     16430       132  23SM      C13F          -21.1782847892      -17.2061275363       -7.5991376905  MEMB      132             0.0000000000
     16431       132  23SM      H13F          -22.0924707572      -16.5984585106       -7.6981848066  MEMB      132             0.0000000000
     16432       132  23SM      H13G          -20.2964831591      -16.5625544588       -7.7947825726  MEMB      132             0.0000000000
     16433       132  23SM      C14F          -21.0570341491      -17.8376328048       -6.2127233127  MEMB      132             0.0000000000
     16434       132  23SM      H14F          -20.1859546736      -18.5276609235       -6.3373372650  MEMB      132             0.0000000000
     16435       132  23SM      H14G          -21.9878498617      -18.4227800085       -6.0301895450  MEMB      132             0.0000000000
     16436       132  23SM      C15F          -20.7485475861      -17.0488738295       -4.9366322415  MEMB      132             0.0000000000
     16437       132  23SM      H15F          -21.7024708839      -16.8971370574       -4.3883815422  MEMB      132             0.0000000000
     16438       132  23SM      H15G          -20.3006143923      -16.0616393365       -5.1686915017  MEMB      132             0.0000000000
     16439       132  23SM      C16F          -19.7962362207      -17.8856428220       -4.0523280745  MEMB      132             0.0000000000
     16440       132  23SM      H16F          -18.7774644539      -17.7769137298       -4.4906962381  MEMB      132             0.0000000000
     16441       132  23SM      H16G          -20.0621255726      -18.9634361465       -4.1387093627  MEMB      132             0.0000000000
     16442       132  23SM      C17F          -19.7429911629      -17.5246886042       -2.5551075837  MEMB      132             0.0000000000
     16443       132  23SM      H17F          -19.8223128990      -16.4239017604       -2.4335782684  MEMB      132             0.0000000000
     16444       132  23SM      H17G          -18.7420162423      -17.8269946877       -2.1815436200  MEMB      132             0.0000000000
     16445       132  23SM      C18F          -20.7595235139      -18.2635441945       -1.6553856904  MEMB      132             0.0000000000
     16446       132  23SM      H18F          -20.7564465357      -19.3460036883       -1.9108260096  MEMB      132             0.0000000000
     16447       132  23SM      H18G          -21.7702522234      -17.8707288351       -1.8927209255  MEMB      132             0.0000000000
     16448       132  23SM      C19F          -20.4892599570      -18.1290967053       -0.1319254447  MEMB      132             0.0000000000
     16449       132  23SM      H19F          -19.6608841230      -18.8157852877        0.1496225571  MEMB      132             0.0000000000
     16450       132  23SM      H19G          -21.3882765321      -18.4637033872        0.4279528173  MEMB      132             0.0000000000
     16451       132  23SM      C20F          -20.0915627398      -16.6951284354        0.2579700835  MEMB      132             0.0000000000
     16452       132  23SM      H20F          -20.8014719245      -15.9792508346       -0.2177511850  MEMB      132             0.0000000000
     16453       132  23SM      H20G          -19.0944197531      -16.5390522790       -0.2133774574  MEMB      132             0.0000000000
     16454       132  23SM      C21F          -19.9165538392      -16.3284150495        1.7517100280  MEMB      132             0.0000000000
     16455       132  23SM      H21F          -19.1660507666      -16.9886346154        2.2376452008  MEMB      132             0.0000000000
     16456       132  23SM      H21G          -20.8598668105      -16.3571128577        2.3360506662  MEMB      132             0.0000000000
     16457       132  23SM      C22F          -19.3449239741      -14.9132324244        1.8363448127  MEMB      132             0.0000000000
     16458       132  23SM      H22F          -20.0807598508      -14.1574023263        1.5403247452  MEMB      132             0.0000000000
     16459       132  23SM      H22G          -18.6775847915      -14.8376363705        0.9941670336  MEMB      132             0.0000000000
     16460       132  23SM      C23F          -18.5631830783      -14.5349561994        3.0892332265  MEMB      132             0.0000000000
     16461       132  23SM      H23F          -18.5165392222      -13.4328634832        3.2088043594  MEMB      132             0.0000000000
     16462       132  23SM      H23G          -17.5200387174      -14.9011614546        3.0158193375  MEMB      132             0.0000000000
     16463       132  23SM      H23H          -19.0459261677      -14.9789261428        3.9805399621  MEMB      132             0.0000000000
     16464       133  DOPE      N             -22.1383585942        6.5147539516      -20.6547837566  MEMB      133             0.0000000000
     16465       133  DOPE      HN1           -22.5861738774        5.6528890799      -20.2664929754  MEMB      133             0.0000000000
     16466       133  DOPE      HN2           -22.4967134003        6.6150338785      -21.6332269987  MEMB      133             0.0000000000
     16467       133  DOPE      HN3           -21.0937864158        6.4233027170      -20.6281940852  MEMB      133             0.0000000000
     16468       133  DOPE      C12           -22.6278359263        7.6473992460      -19.7958748969  MEMB      133             0.0000000000
     16469       133  DOPE      H12A          -22.1751610529        8.5908530183      -20.1652040970  MEMB      133             0.0000000000
     16470       133  DOPE      H12B          -22.3020854213        7.4611078229      -18.7496837163  MEMB      133             0.0000000000
     16471       133  DOPE      C11           -24.1596231031        7.7055645001      -19.8622000203  MEMB      133             0.0000000000
     16472       133  DOPE      H11A          -24.4646644154        8.1468926604      -20.8389196706  MEMB      133             0.0000000000
     16473       133  DOPE      H11B          -24.4885575545        8.4347864193      -19.0810409375  MEMB      133             0.0000000000
     16474       133  DOPE      P             -25.7279923076        6.0293317788      -18.5271632560  MEMB      133             0.0000000000
     16475       133  DOPE      O13           -24.8616791833        5.7502278665      -17.3651646788  MEMB      133             0.0000000000
     16476       133  DOPE      O14           -26.7124212996        5.0215490121      -18.9928979402  MEMB      133             0.0000000000
     16477       133  DOPE      O11           -26.4164476190        7.4191003825      -18.2956974225  MEMB      133             0.0000000000
     16478       133  DOPE      O12           -24.7499236884        6.3989825330      -19.7331661495  MEMB      133             0.0000000000
     16479       133  DOPE      C1            -27.2732813699        8.1240600323      -19.1815370067  MEMB      133             0.0000000000
     16480       133  DOPE      HA            -27.9328457316        7.4256575276      -19.7438420514  MEMB      133             0.0000000000
     16481       133  DOPE      HB            -26.6708438462        8.6897759386      -19.9210634224  MEMB      133             0.0000000000
     16482       133  DOPE      C2            -28.1629084947        9.1315107094      -18.3859245073  MEMB      133             0.0000000000
     16483       133  DOPE      HS            -28.7154919814        9.7736859459      -19.1004922900  MEMB      133             0.0000000000
     16484       133  DOPE      O21           -27.4410081090        9.9427759188      -17.4612868497  MEMB      133             0.0000000000
     16485       133  DOPE      C21           -26.3123359533       10.4908742071      -17.7877713514  MEMB      133             0.0000000000
     16486       133  DOPE      O22           -25.9987300359       10.9289259501      -18.8856996958  MEMB      133             0.0000000000
     16487       133  DOPE      C22           -25.4569656648       10.5230481254      -16.5133598729  MEMB      133             0.0000000000
     16488       133  DOPE      H2R           -26.1397260658       10.6050015992      -15.6381470829  MEMB      133             0.0000000000
     16489       133  DOPE      H2S           -24.8362063586       11.4346424340      -16.5611682534  MEMB      133             0.0000000000
     16490       133  DOPE      C3            -29.1872598966        8.3827879283      -17.5212086047  MEMB      133             0.0000000000
     16491       133  DOPE      HX            -29.9053470200        7.8881263290      -18.2061107147  MEMB      133             0.0000000000
     16492       133  DOPE      HY            -29.7699778999        9.0932380300      -16.8867972744  MEMB      133             0.0000000000
     16493       133  DOPE      O31           -28.5349294311        7.3642840972      -16.7444999096  MEMB      133             0.0000000000
     16494       133  DOPE      C31           -28.0578761083        7.6908752702      -15.5538586053  MEMB      133             0.0000000000
     16495       133  DOPE      O32           -28.1377611862        8.7790438760      -15.0202238783  MEMB      133             0.0000000000
     16496       133  DOPE      C32           -27.5660823104        6.4069113074      -14.8698067674  MEMB      133             0.0000000000
     16497       133  DOPE      H2X           -28.4019282573        5.9706235676      -14.2926079128  MEMB      133             0.0000000000
     16498       133  DOPE      H2Y           -27.2736415058        5.6777137938      -15.6603426149  MEMB      133             0.0000000000
     16499       133  DOPE      C23           -24.5849857610        9.2391857086      -16.3974360333  MEMB      133             0.0000000000
     16500       133  DOPE      H3R           -23.8054993980        9.2754309022      -17.1833952621  MEMB      133             0.0000000000
     16501       133  DOPE      H3S           -25.2459609766        8.3650771586      -16.5837035131  MEMB      133             0.0000000000
     16502       133  DOPE      C24           -23.9224098029        8.9284390123      -15.0482839050  MEMB      133             0.0000000000
     16503       133  DOPE      H4R           -24.6974035007        8.8752669847      -14.2574853096  MEMB      133             0.0000000000
     16504       133  DOPE      H4S           -23.1785513970        9.6737476731      -14.7444521275  MEMB      133             0.0000000000
     16505       133  DOPE      C25           -22.9845224001        7.7223071012      -15.0241054384  MEMB      133             0.0000000000
     16506       133  DOPE      H5R           -22.3285134442        7.7801245920      -15.9208444757  MEMB      133             0.0000000000
     16507       133  DOPE      H5S           -23.5309952275        6.7579922174      -15.0744142488  MEMB      133             0.0000000000
     16508       133  DOPE      C26           -22.0744369213        7.8004898774      -13.7835403232  MEMB      133             0.0000000000
     16509       133  DOPE      H6R           -21.3679651928        8.6492826349      -13.9209389884  MEMB      133             0.0000000000
     16510       133  DOPE      H6S           -21.4788480632        6.8652491917      -13.7406797136  MEMB      133             0.0000000000
     16511       133  DOPE      C27           -22.8112608432        8.0397584487      -12.4493740690  MEMB      133             0.0000000000
     16512       133  DOPE      H7R           -23.5055414975        7.1862467962      -12.2739190355  MEMB      133             0.0000000000
     16513       133  DOPE      H7S           -23.4376419596        8.9564683191      -12.5002051034  MEMB      133             0.0000000000
     16514       133  DOPE      C28           -21.8589658092        8.2148934642      -11.2595185319  MEMB      133             0.0000000000
     16515       133  DOPE      H8R           -22.4570695470        8.4836033802      -10.3579989070  MEMB      133             0.0000000000
     16516       133  DOPE      H8S           -21.1629483352        9.0619976226      -11.4418183094  MEMB      133             0.0000000000
     16517       133  DOPE      C29           -21.1224730944        6.9125913414      -11.1156408294  MEMB      133             0.0000000000
     16518       133  DOPE      H9R           -20.3079879629        6.7454160283      -11.8349921996  MEMB      133             0.0000000000
     16519       133  DOPE      C210          -21.4660623433        5.9241215942      -10.2837481329  MEMB      133             0.0000000000
     16520       133  DOPE      H10R          -20.8896553877        4.9861809345      -10.2952581299  MEMB      133             0.0000000000
     16521       133  DOPE      C211          -22.6397257273        5.9499348622       -9.3464418238  MEMB      133             0.0000000000
     16522       133  DOPE      H11R          -23.2670837382        5.0419266742       -9.4753131674  MEMB      133             0.0000000000
     16523       133  DOPE      H11S          -23.3211206833        6.8163697127       -9.4988194827  MEMB      133             0.0000000000
     16524       133  DOPE      C212          -22.0897182129        6.0201545701       -7.9261812331  MEMB      133             0.0000000000
     16525       133  DOPE      H12R          -21.4490618825        6.9202342606       -7.7810805921  MEMB      133             0.0000000000
     16526       133  DOPE      H12S          -21.4559546130        5.1289624303       -7.7290800071  MEMB      133             0.0000000000
     16527       133  DOPE      C213          -23.2160681266        6.0625289638       -6.9055550069  MEMB      133             0.0000000000
     16528       133  DOPE      H13R          -23.9793877611        5.2944778247       -7.1644786253  MEMB      133             0.0000000000
     16529       133  DOPE      H13S          -23.7139264758        7.0540885488       -6.9511984425  MEMB      133             0.0000000000
     16530       133  DOPE      C214          -22.6872444404        5.8092227355       -5.5010255610  MEMB      133             0.0000000000
     16531       133  DOPE      H14R          -22.0538242731        6.6605058152       -5.1703424129  MEMB      133             0.0000000000
     16532       133  DOPE      H14S          -22.0445237945        4.9082623308       -5.4974448745  MEMB      133             0.0000000000
     16533       133  DOPE      C215          -23.8128182977        5.5831958028       -4.5067908858  MEMB      133             0.0000000000
     16534       133  DOPE      H15R          -24.4203460668        4.7037514350       -4.8230939096  MEMB      133             0.0000000000
     16535       133  DOPE      H15S          -24.4592350148        6.4760920254       -4.5225618854  MEMB      133             0.0000000000
     16536       133  DOPE      C216          -23.2634335016        5.3962719286       -3.0951868223  MEMB      133             0.0000000000
     16537       133  DOPE      H16R          -22.1976552583        5.0971609824       -3.1555076734  MEMB      133             0.0000000000
     16538       133  DOPE      H16S          -23.8380984600        4.5695421660       -2.6105369027  MEMB      133             0.0000000000
     16539       133  DOPE      C217          -23.4726332755        6.6180591891       -2.2152592194  MEMB      133             0.0000000000
     16540       133  DOPE      H17R          -23.5640890828        7.5298284237       -2.8511050011  MEMB      133             0.0000000000
     16541       133  DOPE      H17S          -22.6315189285        6.7786251017       -1.5120109636  MEMB      133             0.0000000000
     16542       133  DOPE      C218          -24.7625740616        6.3730293912       -1.4606539444  MEMB      133             0.0000000000
     16543       133  DOPE      H18R          -24.7001780862        5.6997478517       -0.6020636862  MEMB      133             0.0000000000
     16544       133  DOPE      H18S          -25.4331946302        5.8411544616       -2.1664303764  MEMB      133             0.0000000000
     16545       133  DOPE      H18T          -25.2565817784        7.3144625993       -1.1603776237  MEMB      133             0.0000000000
     16546       133  DOPE      C33           -26.3485280316        6.6395127643      -13.9532426571  MEMB      133             0.0000000000
     16547       133  DOPE      H3X           -25.5240647861        6.9515350957      -14.6212416546  MEMB      133             0.0000000000
     16548       133  DOPE      H3Y           -26.0400590400        5.6665884303      -13.5097247496  MEMB      133             0.0000000000
     16549       133  DOPE      C34           -26.5276133769        7.6612201091      -12.8148938749  MEMB      133             0.0000000000
     16550       133  DOPE      H4X           -25.5906618607        7.6855756067      -12.2221479320  MEMB      133             0.0000000000
     16551       133  DOPE      H4Y           -26.6592662547        8.6871796664      -13.2201533319  MEMB      133             0.0000000000
     16552       133  DOPE      C35           -27.7038820647        7.3461967589      -11.8909514855  MEMB      133             0.0000000000
     16553       133  DOPE      H5X           -27.4786800093        6.4053104885      -11.3485126963  MEMB      133             0.0000000000
     16554       133  DOPE      H5Y           -28.6076374093        7.1605330603      -12.5110242614  MEMB      133             0.0000000000
     16555       133  DOPE      C36           -28.0748759330        8.4765844566      -10.9145278915  MEMB      133             0.0000000000
     16556       133  DOPE      H6X           -28.7806705267        8.0555971713      -10.1664195690  MEMB      133             0.0000000000
     16557       133  DOPE      H6Y           -28.6328321331        9.2489657099      -11.4899101657  MEMB      133             0.0000000000
     16558       133  DOPE      C37           -26.9346213600        9.2133981844      -10.1821958735  MEMB      133             0.0000000000
     16559       133  DOPE      H7X           -26.3529791197        9.8051354220      -10.9244932956  MEMB      133             0.0000000000
     16560       133  DOPE      H7Y           -27.4174745935        9.9461053975       -9.4923920053  MEMB      133             0.0000000000
     16561       133  DOPE      C38           -25.9551295331        8.3434176639       -9.3654866706  MEMB      133             0.0000000000
     16562       133  DOPE      H8X           -25.3972244210        8.9995233230       -8.6595074496  MEMB      133             0.0000000000
     16563       133  DOPE      H8Y           -25.2037280008        7.9279869548      -10.0736736686  MEMB      133             0.0000000000
     16564       133  DOPE      C39           -26.6478011801        7.2068834472       -8.6601660067  MEMB      133             0.0000000000
     16565       133  DOPE      H9X           -27.0496843015        6.4516535635       -9.3482304781  MEMB      133             0.0000000000
     16566       133  DOPE      C310          -26.7857412106        6.9594557054       -7.3503650381  MEMB      133             0.0000000000
     16567       133  DOPE      H10X          -27.3143024963        6.0378390318       -7.0680586574  MEMB      133             0.0000000000
     16568       133  DOPE      C311          -26.2915889972        7.7286202244       -6.1583350474  MEMB      133             0.0000000000
     16569       133  DOPE      H11X          -26.0871314522        6.9357271009       -5.4194939115  MEMB      133             0.0000000000
     16570       133  DOPE      H11Y          -25.3402272428        8.2715169708       -6.3358804834  MEMB      133             0.0000000000
     16571       133  DOPE      C312          -27.2916075309        8.6652479914       -5.4694060034  MEMB      133             0.0000000000
     16572       133  DOPE      H12X          -28.2337604430        8.1011793845       -5.3494548643  MEMB      133             0.0000000000
     16573       133  DOPE      H12Y          -27.4860167115        9.5741353898       -6.0789877268  MEMB      133             0.0000000000
     16574       133  DOPE      C313          -26.9251173517        9.0336646938       -4.0341110626  MEMB      133             0.0000000000
     16575       133  DOPE      H13X          -25.9377467784        9.5471653028       -4.0298524091  MEMB      133             0.0000000000
     16576       133  DOPE      H13Y          -27.6767741180        9.7187603579       -3.6007352113  MEMB      133             0.0000000000
     16577       133  DOPE      C314          -26.8234919145        7.8268768437       -3.1003670965  MEMB      133             0.0000000000
     16578       133  DOPE      H14X          -26.9354772894        8.1731072429       -2.0493045479  MEMB      133             0.0000000000
     16579       133  DOPE      H14Y          -25.8153160241        7.4457278280       -3.3177898606  MEMB      133             0.0000000000
     16580       133  DOPE      C315          -27.7896819536        6.6573912966       -3.2653024038  MEMB      133             0.0000000000
     16581       133  DOPE      H15X          -27.5662241796        6.0443486775       -4.1646071965  MEMB      133             0.0000000000
     16582       133  DOPE      H15Y          -28.7527946291        7.2001533594       -3.4042368789  MEMB      133             0.0000000000
     16583       133  DOPE      C316          -27.9550601878        5.7465569918       -2.0282032828  MEMB      133             0.0000000000
     16584       133  DOPE      H16X          -28.8648606509        6.0930869636       -1.5236306313  MEMB      133             0.0000000000
     16585       133  DOPE      H16Y          -27.1700899051        5.9727486437       -1.3031358618  MEMB      133             0.0000000000
     16586       133  DOPE      C317          -27.9421939331        4.2102066526       -2.2030536597  MEMB      133             0.0000000000
     16587       133  DOPE      H17X          -28.6746809316        3.8547578741       -2.9428183000  MEMB      133             0.0000000000
     16588       133  DOPE      H17Y          -26.9407569979        3.8919936622       -2.5643973426  MEMB      133             0.0000000000
     16589       133  DOPE      C318          -28.2984956372        3.4389118347       -0.9313516066  MEMB      133             0.0000000000
     16590       133  DOPE      H18X          -28.5944970911        2.4001729592       -1.1900067041  MEMB      133             0.0000000000
     16591       133  DOPE      H18Y          -27.4525574558        3.4244337019       -0.2146271559  MEMB      133             0.0000000000
     16592       133  DOPE      H18Z          -29.1619043448        3.9079059695       -0.4224409431  MEMB      133             0.0000000000
     16593       134  23SM      N              22.6426052009      -12.0624017517      -27.6233223308  MEMB      134             0.0000000000
     16594       134  23SM      C15            22.0357794582      -11.0461774342      -28.5435159013  MEMB      134             0.0000000000
     16595       134  23SM      H15A           20.9479811049      -11.0430126084      -28.4941221393  MEMB      134             0.0000000000
     16596       134  23SM      H15B           22.3152789706      -11.2613886086      -29.5687118908  MEMB      134             0.0000000000
     16597       134  23SM      H15C           22.3776354128      -10.0394235033      -28.3175304539  MEMB      134             0.0000000000
     16598       134  23SM      C14            22.0414789822      -13.4012768185      -27.9224359387  MEMB      134             0.0000000000
     16599       134  23SM      H14A           21.0168836119      -13.4616670731      -27.5568909150  MEMB      134             0.0000000000
     16600       134  23SM      H14B           22.5781449576      -14.1782556808      -27.3773191870  MEMB      134             0.0000000000
     16601       134  23SM      H14C           22.0331223369      -13.6344933772      -28.9728381019  MEMB      134             0.0000000000
     16602       134  23SM      C13            24.1115768254      -12.1673225802      -27.9052704761  MEMB      134             0.0000000000
     16603       134  23SM      H13A           24.5520100185      -12.9191732081      -27.2547920427  MEMB      134             0.0000000000
     16604       134  23SM      H13B           24.6344510110      -11.2354000302      -27.7417602759  MEMB      134             0.0000000000
     16605       134  23SM      H13C           24.2946304785      -12.4490155291      -28.9424661104  MEMB      134             0.0000000000
     16606       134  23SM      C12            22.3328350524      -11.7009963985      -26.1737100602  MEMB      134             0.0000000000
     16607       134  23SM      H12A           21.2946945380      -11.9950305918      -25.9728098582  MEMB      134             0.0000000000
     16608       134  23SM      H12B           22.3681720690      -10.6315334781      -26.0513407448  MEMB      134             0.0000000000
     16609       134  23SM      C11            23.1523217869      -12.3851046387      -25.0481985816  MEMB      134             0.0000000000
     16610       134  23SM      H11A           22.8917744968      -11.9258320115      -24.0642020704  MEMB      134             0.0000000000
     16611       134  23SM      H11B           24.2381884555      -12.2056590989      -25.2076190710  MEMB      134             0.0000000000
     16612       134  23SM      P              21.5187878520      -14.3914702663      -24.5667400537  MEMB      134             0.0000000000
     16613       134  23SM      O13            20.4831505847      -13.6311380350      -25.2961104876  MEMB      134             0.0000000000
     16614       134  23SM      O14            21.6064756479      -15.8624579050      -24.7175396985  MEMB      134             0.0000000000
     16615       134  23SM      O11            21.3699121836      -14.0221446913      -23.0531837302  MEMB      134             0.0000000000
     16616       134  23SM      O12            22.9306633743      -13.7901123538      -25.0157248555  MEMB      134             0.0000000000
     16617       134  23SM      C1S            22.4605348491      -14.1536594190      -22.1477306069  MEMB      134             0.0000000000
     16618       134  23SM      H1S            23.3879122672      -13.6864057928      -22.5517182601  MEMB      134             0.0000000000
     16619       134  23SM      H1T            22.6658573332      -15.2278275772      -21.9284191126  MEMB      134             0.0000000000
     16620       134  23SM      NF             23.2106555137      -13.4125971663      -19.9265556130  MEMB      134             0.0000000000
     16621       134  23SM      HNF            23.2803403071      -14.0979506707      -19.2085502814  MEMB      134             0.0000000000
     16622       134  23SM      C2S            22.0773422398      -13.4345840777      -20.8370582409  MEMB      134             0.0000000000
     16623       134  23SM      H2S            21.7941652780      -12.3821594370      -21.0704727448  MEMB      134             0.0000000000
     16624       134  23SM      C3S            20.8299114719      -14.1540174499      -20.2447844809  MEMB      134             0.0000000000
     16625       134  23SM      H3S            21.0397663452      -15.2389669737      -20.1454005515  MEMB      134             0.0000000000
     16626       134  23SM      O3             19.6506780566      -14.0500779414      -21.0300863434  MEMB      134             0.0000000000
     16627       134  23SM      HO3            20.0063054278      -13.9712564029      -21.9314168729  MEMB      134             0.0000000000
     16628       134  23SM      C4S            20.4646420506      -13.5782375919      -18.9245398054  MEMB      134             0.0000000000
     16629       134  23SM      H4S            20.1109144373      -12.5478749036      -18.9908713143  MEMB      134             0.0000000000
     16630       134  23SM      C5S            20.5002963194      -14.1952281647      -17.7327954631  MEMB      134             0.0000000000
     16631       134  23SM      H5S            20.8621620163      -15.2360102084      -17.6555372116  MEMB      134             0.0000000000
     16632       134  23SM      C6S            20.0990545436      -13.5174471363      -16.4530114791  MEMB      134             0.0000000000
     16633       134  23SM      H6S            20.2340324442      -12.4158005614      -16.5263002316  MEMB      134             0.0000000000
     16634       134  23SM      H6T            20.7318855871      -13.8940691741      -15.6163289285  MEMB      134             0.0000000000
     16635       134  23SM      C7S            18.6349080586      -13.7498003109      -16.0666000637  MEMB      134             0.0000000000
     16636       134  23SM      H7S            18.4629476640      -14.8396333938      -15.9093708249  MEMB      134             0.0000000000
     16637       134  23SM      H7T            17.9807079802      -13.4336883482      -16.9079405783  MEMB      134             0.0000000000
     16638       134  23SM      C8S            18.1962162049      -12.9979290293      -14.7975815590  MEMB      134             0.0000000000
     16639       134  23SM      H8S            17.1987732540      -12.5374771634      -14.9837230171  MEMB      134             0.0000000000
     16640       134  23SM      H8T            18.9098337310      -12.1826237596      -14.5506995709  MEMB      134             0.0000000000
     16641       134  23SM      C9S            18.0430554867      -13.9530432267      -13.6055374675  MEMB      134             0.0000000000
     16642       134  23SM      H9S            19.0173958412      -14.4512949638      -13.3990622056  MEMB      134             0.0000000000
     16643       134  23SM      H9T            17.3122204451      -14.7432158763      -13.8948728397  MEMB      134             0.0000000000
     16644       134  23SM      C10S           17.5417362018      -13.2830128203      -12.3231233282  MEMB      134             0.0000000000
     16645       134  23SM      H10S           17.2225246739      -14.0824757558      -11.6164134662  MEMB      134             0.0000000000
     16646       134  23SM      H10T           16.6622753494      -12.6352520269      -12.5310965990  MEMB      134             0.0000000000
     16647       134  23SM      C11S           18.6375484058      -12.4712234580      -11.6430062351  MEMB      134             0.0000000000
     16648       134  23SM      H11S           18.9354056274      -11.6218595283      -12.2994041204  MEMB      134             0.0000000000
     16649       134  23SM      H11T           19.5399887456      -13.1104360952      -11.4994273425  MEMB      134             0.0000000000
     16650       134  23SM      C12S           18.2073453446      -11.9172010727      -10.2883434888  MEMB      134             0.0000000000
     16651       134  23SM      H12S           17.3524571159      -11.2195189017      -10.3777431626  MEMB      134             0.0000000000
     16652       134  23SM      H12T           19.0545361213      -11.3139050967       -9.9608357657  MEMB      134             0.0000000000
     16653       134  23SM      C13S           17.9857131951      -12.9526194472       -9.1891459340  MEMB      134             0.0000000000
     16654       134  23SM      H13S           18.8847536908      -13.6138493031       -9.1577145300  MEMB      134             0.0000000000
     16655       134  23SM      H13T           17.1034580906      -13.5830300923       -9.4264963803  MEMB      134             0.0000000000
     16656       134  23SM      C14S           17.8084058449      -12.2909359085       -7.8148477873  MEMB      134             0.0000000000
     16657       134  23SM      H14S           16.7511105061      -11.9734631874       -7.6846090804  MEMB      134             0.0000000000
     16658       134  23SM      H14T           18.4241368629      -11.3681102008       -7.7478359515  MEMB      134             0.0000000000
     16659       134  23SM      C15S           18.2464935552      -13.2231686300       -6.6870543689  MEMB      134             0.0000000000
     16660       134  23SM      H15S           19.2496657826      -13.6496787267       -6.9157550544  MEMB      134             0.0000000000
     16661       134  23SM      H15T           17.5256009736      -14.0559648350       -6.6243278945  MEMB      134             0.0000000000
     16662       134  23SM      C16S           18.2847520582      -12.5665531223       -5.3123952678  MEMB      134             0.0000000000
     16663       134  23SM      H16S           17.2493893874      -12.2656770523       -5.0282182268  MEMB      134             0.0000000000
     16664       134  23SM      H16T           18.9139903367      -11.6496343429       -5.3420794373  MEMB      134             0.0000000000
     16665       134  23SM      C17S           18.8345884556      -13.5362126843       -4.2644349406  MEMB      134             0.0000000000
     16666       134  23SM      H17S           19.8941192317      -13.7820419891       -4.5031739097  MEMB      134             0.0000000000
     16667       134  23SM      H17T           18.2508358159      -14.4864381718       -4.3122160344  MEMB      134             0.0000000000
     16668       134  23SM      C18S           18.7296498509      -12.9625275577       -2.8577776812  MEMB      134             0.0000000000
     16669       134  23SM      H18S           19.0148865249      -13.7168192893       -2.0928671580  MEMB      134             0.0000000000
     16670       134  23SM      H18T           17.6734820896      -12.6641415778       -2.6839636648  MEMB      134             0.0000000000
     16671       134  23SM      H18U           19.3734428545      -12.0640871078       -2.7471388704  MEMB      134             0.0000000000
     16672       134  23SM      C1F            24.2538007218      -12.6265880259      -20.1874552481  MEMB      134             0.0000000000
     16673       134  23SM      OF             24.1934370847      -11.8201333942      -21.1143556816  MEMB      134             0.0000000000
     16674       134  23SM      C2F            25.4698379948      -12.8303655872      -19.3270877758  MEMB      134             0.0000000000
     16675       134  23SM      H2F            26.0439795797      -13.6893729216      -19.7314946687  MEMB      134             0.0000000000
     16676       134  23SM      H2G            25.1416970572      -13.1265443200      -18.3081220627  MEMB      134             0.0000000000
     16677       134  23SM      C3F            26.3794171963      -11.5795907214      -19.2475650445  MEMB      134             0.0000000000
     16678       134  23SM      H3F            26.8429729548      -11.3925301440      -20.2399978182  MEMB      134             0.0000000000
     16679       134  23SM      H3G            27.2007738124      -11.8002420230      -18.5254737301  MEMB      134             0.0000000000
     16680       134  23SM      C4F            25.6533094988      -10.3174715484      -18.7681562499  MEMB      134             0.0000000000
     16681       134  23SM      H4F            24.8385877139      -10.0387508135      -19.4700715203  MEMB      134             0.0000000000
     16682       134  23SM      H4G            26.3503269771       -9.4462191134      -18.7662585321  MEMB      134             0.0000000000
     16683       134  23SM      C5F            25.1183626732      -10.4934285518      -17.3437185817  MEMB      134             0.0000000000
     16684       134  23SM      H5F            25.7037498830       -9.7902657838      -16.7035630423  MEMB      134             0.0000000000
     16685       134  23SM      H5G            25.3230426966      -11.5164345074      -16.9668243719  MEMB      134             0.0000000000
     16686       134  23SM      C6F            23.6311678745      -10.1803368128      -17.1622647613  MEMB      134             0.0000000000
     16687       134  23SM      H6F            22.9712467751      -10.9953579360      -17.5240798769  MEMB      134             0.0000000000
     16688       134  23SM      H6G            23.4080364409       -9.2540058292      -17.7467475414  MEMB      134             0.0000000000
     16689       134  23SM      C7F            23.3688061553       -9.8052748678      -15.7082748915  MEMB      134             0.0000000000
     16690       134  23SM      H7F            22.4040614664       -9.2823185626      -15.6300333189  MEMB      134             0.0000000000
     16691       134  23SM      H7G            24.1811606746       -9.1059118993      -15.3944449959  MEMB      134             0.0000000000
     16692       134  23SM      C8F            23.3198266398      -10.9102594399      -14.6761683451  MEMB      134             0.0000000000
     16693       134  23SM      H8F            23.5128236328      -10.4252800302      -13.6962711965  MEMB      134             0.0000000000
     16694       134  23SM      H8G            24.1003133606      -11.6833007399      -14.8545976256  MEMB      134             0.0000000000
     16695       134  23SM      C9F            21.9246718539      -11.5081638893      -14.5579010071  MEMB      134             0.0000000000
     16696       134  23SM      H9F            21.9173676798      -12.2935887550      -15.3324576046  MEMB      134             0.0000000000
     16697       134  23SM      H9G            21.1311624095      -10.7581560834      -14.7616586640  MEMB      134             0.0000000000
     16698       134  23SM      C10F           21.6658433599      -12.1231755664      -13.1908890158  MEMB      134             0.0000000000
     16699       134  23SM      H10F           20.8940385855      -12.9215804251      -13.2864877637  MEMB      134             0.0000000000
     16700       134  23SM      H10G           21.2787958561      -11.3610821580      -12.4754998031  MEMB      134             0.0000000000
     16701       134  23SM      C11F           22.9552657853      -12.7269345081      -12.6519222500  MEMB      134             0.0000000000
     16702       134  23SM      H11F           23.6368584038      -11.9337213187      -12.2696776580  MEMB      134             0.0000000000
     16703       134  23SM      H11G           23.4640439016      -13.2708031556      -13.4821448563  MEMB      134             0.0000000000
     16704       134  23SM      C12F           22.6834428618      -13.7275254123      -11.5565374453  MEMB      134             0.0000000000
     16705       134  23SM      H12F           22.0419562353      -14.5310353121      -11.9860706306  MEMB      134             0.0000000000
     16706       134  23SM      H12G           22.1206338831      -13.2257548645      -10.7403747640  MEMB      134             0.0000000000
     16707       134  23SM      C13F           23.9860177219      -14.3319642799      -11.0452873569  MEMB      134             0.0000000000
     16708       134  23SM      H13F           24.6329717196      -13.5384855357      -10.6080042285  MEMB      134             0.0000000000
     16709       134  23SM      H13G           24.5346251673      -14.7685684148      -11.9124643335  MEMB      134             0.0000000000
     16710       134  23SM      C14F           23.7044383535      -15.4244079901      -10.0171288476  MEMB      134             0.0000000000
     16711       134  23SM      H14F           24.6425300402      -15.9830515367       -9.8127877181  MEMB      134             0.0000000000
     16712       134  23SM      H14G           22.9675157329      -16.1341761660      -10.4589535572  MEMB      134             0.0000000000
     16713       134  23SM      C15F           23.1439461602      -14.8713028174       -8.6997958836  MEMB      134             0.0000000000
     16714       134  23SM      H15F           22.2208775686      -14.2866672510       -8.9111001613  MEMB      134             0.0000000000
     16715       134  23SM      H15G           23.8804763922      -14.1729607570       -8.2472615711  MEMB      134             0.0000000000
     16716       134  23SM      C16F           22.7829830174      -15.9844768237       -7.7091468672  MEMB      134             0.0000000000
     16717       134  23SM      H16F           22.6103436322      -16.9187629341       -8.2821674911  MEMB      134             0.0000000000
     16718       134  23SM      H16G           21.8257594413      -15.7263689408       -7.2013477972  MEMB      134             0.0000000000
     16719       134  23SM      C17F           23.8572700214      -16.2172929629       -6.6417830998  MEMB      134             0.0000000000
     16720       134  23SM      H17F           24.8618390413      -16.2985978683       -7.1087207233  MEMB      134             0.0000000000
     16721       134  23SM      H17G           23.6786672514      -17.1726336255       -6.1193174143  MEMB      134             0.0000000000
     16722       134  23SM      C18F           23.8409148469      -15.1360055106       -5.5618523707  MEMB      134             0.0000000000
     16723       134  23SM      H18F           22.7916671481      -14.8208063051       -5.3629311722  MEMB      134             0.0000000000
     16724       134  23SM      H18G           24.3801138408      -14.2673230511       -5.9706643562  MEMB      134             0.0000000000
     16725       134  23SM      C19F           24.4558088217      -15.6149393896       -4.2430685761  MEMB      134             0.0000000000
     16726       134  23SM      H19F           25.5188762342      -15.9035700215       -4.3888594084  MEMB      134             0.0000000000
     16727       134  23SM      H19G           23.9068507517      -16.5322061462       -3.9548178966  MEMB      134             0.0000000000
     16728       134  23SM      C20F           24.3176549320      -14.6183852357       -3.0821267198  MEMB      134             0.0000000000
     16729       134  23SM      H20F           23.3271207439      -14.1141417224       -3.1454697956  MEMB      134             0.0000000000
     16730       134  23SM      H20G           25.1018316221      -13.8383925103       -3.1548764298  MEMB      134             0.0000000000
     16731       134  23SM      C21F           24.4266024343      -15.2750302425       -1.7018732067  MEMB      134             0.0000000000
     16732       134  23SM      H21F           23.4977607577      -15.8536417321       -1.5028888518  MEMB      134             0.0000000000
     16733       134  23SM      H21G           24.4955158121      -14.4884298075       -0.9174338755  MEMB      134             0.0000000000
     16734       134  23SM      C22F           25.6186433500      -16.2182449692       -1.5547265191  MEMB      134             0.0000000000
     16735       134  23SM      H22F           26.5697717896      -15.6809173720       -1.7556205890  MEMB      134             0.0000000000
     16736       134  23SM      H22G           25.5593907517      -17.0273973061       -2.3116700625  MEMB      134             0.0000000000
     16737       134  23SM      C23F           25.6451831276      -16.8344085817       -0.1629004062  MEMB      134             0.0000000000
     16738       134  23SM      H23F           25.6967375555      -16.0234584058        0.5913424863  MEMB      134             0.0000000000
     16739       134  23SM      H23G           26.5226160041      -17.5049268979       -0.0514928656  MEMB      134             0.0000000000
     16740       134  23SM      H23H           24.7416514903      -17.4245565486        0.0845149762  MEMB      134             0.0000000000
     16741       135  DOPC      N             -16.5741707142       19.3737652246      -21.0753103697  MEMB      135             0.0000000000
     16742       135  DOPC      C12           -17.5989655323       19.6459914745      -19.9701174481  MEMB      135             0.0000000000
     16743       135  DOPC      H12A          -17.4757398986       18.8900270783      -19.1846560573  MEMB      135             0.0000000000
     16744       135  DOPC      H12B          -18.6133418949       19.5116218467      -20.3191015471  MEMB      135             0.0000000000
     16745       135  DOPC      C13           -15.1844237776       19.4784083522      -20.4925116778  MEMB      135             0.0000000000
     16746       135  DOPC      H13A          -15.1092450563       20.4108145876      -19.9229756471  MEMB      135             0.0000000000
     16747       135  DOPC      H13B          -14.9753669318       18.6936103420      -19.7689081763  MEMB      135             0.0000000000
     16748       135  DOPC      H13C          -14.4081473408       19.4711344278      -21.2404024827  MEMB      135             0.0000000000
     16749       135  DOPC      C14           -16.6721847869       20.4033977346      -22.1554561239  MEMB      135             0.0000000000
     16750       135  DOPC      H14A          -15.9497257319       20.2435576391      -22.9507171151  MEMB      135             0.0000000000
     16751       135  DOPC      H14B          -17.6546935536       20.4380507815      -22.6176697447  MEMB      135             0.0000000000
     16752       135  DOPC      H14C          -16.4926172426       21.3858167212      -21.7316909095  MEMB      135             0.0000000000
     16753       135  DOPC      C15           -16.7738261197       18.0252513569      -21.6815101836  MEMB      135             0.0000000000
     16754       135  DOPC      H15A          -16.0920880960       17.8910075029      -22.5168840605  MEMB      135             0.0000000000
     16755       135  DOPC      H15B          -17.7854198661       17.8988996330      -22.0631233115  MEMB      135             0.0000000000
     16756       135  DOPC      H15C          -16.5782464392       17.2351211795      -20.9677541272  MEMB      135             0.0000000000
     16757       135  DOPC      C11           -17.5264580631       21.0063696575      -19.2038348709  MEMB      135             0.0000000000
     16758       135  DOPC      H11A          -17.5693385058       21.8573239576      -19.9143548687  MEMB      135             0.0000000000
     16759       135  DOPC      H11B          -18.4303131890       21.0983426110      -18.5491964779  MEMB      135             0.0000000000
     16760       135  DOPC      P             -16.2742527872       20.1479572520      -17.1309401927  MEMB      135             0.0000000000
     16761       135  DOPC      O13           -14.8612768094       19.8211306599      -16.8464849408  MEMB      135             0.0000000000
     16762       135  DOPC      O14           -17.1856588032       19.0119477450      -17.3570200898  MEMB      135             0.0000000000
     16763       135  DOPC      O12           -16.3377617127       21.1113109203      -18.4092702720  MEMB      135             0.0000000000
     16764       135  DOPC      O11           -16.8668820297       21.0148160805      -15.9487142151  MEMB      135             0.0000000000
     16765       135  DOPC      C1            -16.0419829528       21.2810530963      -14.8141831245  MEMB      135             0.0000000000
     16766       135  DOPC      HA            -16.5212180099       22.0709596415      -14.1951064440  MEMB      135             0.0000000000
     16767       135  DOPC      HB            -15.0455533772       21.6778734825      -15.1213318591  MEMB      135             0.0000000000
     16768       135  DOPC      C2            -15.8475098212       20.0241145046      -13.9214869832  MEMB      135             0.0000000000
     16769       135  DOPC      HS            -15.5926406108       19.1595169869      -14.5796625751  MEMB      135             0.0000000000
     16770       135  DOPC      O21           -17.0726021833       19.7802462240      -13.1977402388  MEMB      135             0.0000000000
     16771       135  DOPC      C21           -17.2391365738       18.5448062516      -12.7818956182  MEMB      135             0.0000000000
     16772       135  DOPC      O22           -16.4153473997       17.6483219375      -12.8474758425  MEMB      135             0.0000000000
     16773       135  DOPC      C22           -18.6682575590       18.3820139262      -12.2567921738  MEMB      135             0.0000000000
     16774       135  DOPC      H2R           -19.2249344370       17.7986757367      -13.0213114152  MEMB      135             0.0000000000
     16775       135  DOPC      H2S           -19.1569872977       19.3724930884      -12.1594952030  MEMB      135             0.0000000000
     16776       135  DOPC      C3            -14.6495732354       20.2339827914      -12.9654034099  MEMB      135             0.0000000000
     16777       135  DOPC      HX            -13.7100082056       20.2596328299      -13.5644736810  MEMB      135             0.0000000000
     16778       135  DOPC      HY            -14.6153202920       19.3253947304      -12.3168156524  MEMB      135             0.0000000000
     16779       135  DOPC      O31           -14.8134512324       21.4788117403      -12.2427888771  MEMB      135             0.0000000000
     16780       135  DOPC      C31           -14.4660739062       21.3862342001      -10.9640794761  MEMB      135             0.0000000000
     16781       135  DOPC      O32           -13.8835080135       20.4451534148      -10.4665259126  MEMB      135             0.0000000000
     16782       135  DOPC      C32           -14.9215758078       22.6086481953      -10.1866012233  MEMB      135             0.0000000000
     16783       135  DOPC      H2X           -14.3534706287       22.5997152517       -9.2308562413  MEMB      135             0.0000000000
     16784       135  DOPC      H2Y           -14.6846658593       23.5336968341      -10.7451149151  MEMB      135             0.0000000000
     16785       135  DOPC      C23           -18.6937797343       17.6228186495      -10.9152333999  MEMB      135             0.0000000000
     16786       135  DOPC      H3R           -17.8917240256       16.8510193368      -10.8886220670  MEMB      135             0.0000000000
     16787       135  DOPC      H3S           -19.6565157098       17.0790012491      -10.8084882461  MEMB      135             0.0000000000
     16788       135  DOPC      C24           -18.5019391690       18.5228987989       -9.6924704860  MEMB      135             0.0000000000
     16789       135  DOPC      H4R           -19.4213372921       19.1156944541       -9.4872052624  MEMB      135             0.0000000000
     16790       135  DOPC      H4S           -17.6740081470       19.2406798478       -9.8850656295  MEMB      135             0.0000000000
     16791       135  DOPC      C25           -18.1527019629       17.6845387873       -8.4595580944  MEMB      135             0.0000000000
     16792       135  DOPC      H5R           -17.4083019095       16.9013789585       -8.7219490085  MEMB      135             0.0000000000
     16793       135  DOPC      H5S           -19.0813652985       17.1619928756       -8.1296205672  MEMB      135             0.0000000000
     16794       135  DOPC      C26           -17.5964812633       18.5187917282       -7.3029628404  MEMB      135             0.0000000000
     16795       135  DOPC      H6R           -17.7656012501       17.9612062875       -6.3594765814  MEMB      135             0.0000000000
     16796       135  DOPC      H6S           -18.1866156357       19.4470605094       -7.2017503100  MEMB      135             0.0000000000
     16797       135  DOPC      C27           -16.0859942913       18.8183830222       -7.3675128982  MEMB      135             0.0000000000
     16798       135  DOPC      H7R           -15.8853483769       19.6359075978       -8.0936886299  MEMB      135             0.0000000000
     16799       135  DOPC      H7S           -15.5402888094       17.9164811743       -7.7204172102  MEMB      135             0.0000000000
     16800       135  DOPC      C28           -15.5845041106       19.2034130627       -5.9608542252  MEMB      135             0.0000000000
     16801       135  DOPC      H8R           -15.8571771317       18.3815207329       -5.2829167816  MEMB      135             0.0000000000
     16802       135  DOPC      H8S           -16.1995518914       20.0587311988       -5.6162332598  MEMB      135             0.0000000000
     16803       135  DOPC      C29           -14.1127068282       19.4280645305       -5.7470217906  MEMB      135             0.0000000000
     16804       135  DOPC      H9R           -13.5049062069       18.5172536168       -5.8366167564  MEMB      135             0.0000000000
     16805       135  DOPC      C210          -13.5020218444       20.6105408816       -5.5433134210  MEMB      135             0.0000000000
     16806       135  DOPC      H10R          -12.4108838501       20.6344158009       -5.4059036065  MEMB      135             0.0000000000
     16807       135  DOPC      C211          -14.1853157264       21.9467654904       -5.5044747019  MEMB      135             0.0000000000
     16808       135  DOPC      H11R          -15.2506937255       21.8011350413       -5.7379645970  MEMB      135             0.0000000000
     16809       135  DOPC      H11S          -13.7925417974       22.5792852399       -6.3307882955  MEMB      135             0.0000000000
     16810       135  DOPC      C212          -14.1125766267       22.7865227817       -4.2171186613  MEMB      135             0.0000000000
     16811       135  DOPC      H12R          -14.6588574740       23.7343842050       -4.4477627713  MEMB      135             0.0000000000
     16812       135  DOPC      H12S          -13.0680774132       23.0741427095       -3.9736205220  MEMB      135             0.0000000000
     16813       135  DOPC      C213          -14.8008521587       22.1611945818       -2.9950518304  MEMB      135             0.0000000000
     16814       135  DOPC      H13R          -14.0946424211       21.5094910658       -2.4362005271  MEMB      135             0.0000000000
     16815       135  DOPC      H13S          -15.6407638396       21.5192719273       -3.3352317768  MEMB      135             0.0000000000
     16816       135  DOPC      C214          -15.3574909108       23.2501319693       -2.0679863489  MEMB      135             0.0000000000
     16817       135  DOPC      H14R          -16.0828316626       22.8258577969       -1.3479645714  MEMB      135             0.0000000000
     16818       135  DOPC      H14S          -15.9215320540       23.9763675995       -2.6884908265  MEMB      135             0.0000000000
     16819       135  DOPC      C215          -14.2303421757       23.9923444693       -1.3497147291  MEMB      135             0.0000000000
     16820       135  DOPC      H15R          -13.5346164716       24.3526676917       -2.1363406317  MEMB      135             0.0000000000
     16821       135  DOPC      H15S          -13.6654062044       23.2968955717       -0.6928272304  MEMB      135             0.0000000000
     16822       135  DOPC      C216          -14.6801926833       25.2274816310       -0.5670820712  MEMB      135             0.0000000000
     16823       135  DOPC      H16R          -15.2852158023       25.8887717933       -1.2269441405  MEMB      135             0.0000000000
     16824       135  DOPC      H16S          -13.7560922473       25.7711409433       -0.2727539374  MEMB      135             0.0000000000
     16825       135  DOPC      C217          -15.4612006312       24.9262138284        0.7114214184  MEMB      135             0.0000000000
     16826       135  DOPC      H17R          -16.3951825234       24.4059943997        0.4098248743  MEMB      135             0.0000000000
     16827       135  DOPC      H17S          -15.7606433563       25.8811858416        1.1974769988  MEMB      135             0.0000000000
     16828       135  DOPC      C218          -14.6787224060       24.0939806813        1.7311959939  MEMB      135             0.0000000000
     16829       135  DOPC      H18R          -13.6209372995       24.4299672246        1.7797422368  MEMB      135             0.0000000000
     16830       135  DOPC      H18S          -14.6987195783       23.0256369131        1.4378364890  MEMB      135             0.0000000000
     16831       135  DOPC      H18T          -15.1225656511       24.1841667018        2.7453433798  MEMB      135             0.0000000000
     16832       135  DOPC      C33           -16.4184192281       22.4723284081       -9.8893962907  MEMB      135             0.0000000000
     16833       135  DOPC      H3X           -16.5978572221       21.4554764013       -9.4604754698  MEMB      135             0.0000000000
     16834       135  DOPC      H3Y           -17.0205991737       22.5443756199      -10.8243902848  MEMB      135             0.0000000000
     16835       135  DOPC      C34           -16.9362881410       23.4794921141       -8.8648811170  MEMB      135             0.0000000000
     16836       135  DOPC      H4X           -17.1056420130       24.4641259732       -9.3551048116  MEMB      135             0.0000000000
     16837       135  DOPC      H4Y           -16.1935647512       23.6252977126       -8.0484510956  MEMB      135             0.0000000000
     16838       135  DOPC      C35           -18.2267647095       22.9332275787       -8.2577771618  MEMB      135             0.0000000000
     16839       135  DOPC      H5X           -18.7976407823       22.3847372736       -9.0428293581  MEMB      135             0.0000000000
     16840       135  DOPC      H5Y           -18.8714183028       23.7670968529       -7.9507099463  MEMB      135             0.0000000000
     16841       135  DOPC      C36           -17.9515047142       22.0222264256       -7.0500407169  MEMB      135             0.0000000000
     16842       135  DOPC      H6X           -18.8612293475       21.4061629687       -6.8801728940  MEMB      135             0.0000000000
     16843       135  DOPC      H6Y           -17.1025517484       21.3506061415       -7.2845282077  MEMB      135             0.0000000000
     16844       135  DOPC      C37           -17.6631265457       22.8022546932       -5.7587168252  MEMB      135             0.0000000000
     16845       135  DOPC      H7X           -16.6195160343       23.1548271846       -5.6986451421  MEMB      135             0.0000000000
     16846       135  DOPC      H7Y           -18.2143002128       23.7358597850       -5.9211410527  MEMB      135             0.0000000000
     16847       135  DOPC      C38           -18.0516246032       22.0938680648       -4.4296742321  MEMB      135             0.0000000000
     16848       135  DOPC      H8X           -17.6801461108       22.7212399181       -3.5895909892  MEMB      135             0.0000000000
     16849       135  DOPC      H8Y           -17.5291329592       21.1210019438       -4.3549849592  MEMB      135             0.0000000000
     16850       135  DOPC      C39           -19.5388887829       21.9282016676       -4.2823524103  MEMB      135             0.0000000000
     16851       135  DOPC      H9X           -20.0438978179       22.8571294444       -4.0337671540  MEMB      135             0.0000000000
     16852       135  DOPC      C310          -20.3005739812       20.8454393914       -4.1561961097  MEMB      135             0.0000000000
     16853       135  DOPC      H10X          -21.3928174290       20.9735350645       -4.2309030320  MEMB      135             0.0000000000
     16854       135  DOPC      C311          -19.8033215118       19.4404901125       -4.1183910082  MEMB      135             0.0000000000
     16855       135  DOPC      H11X          -18.8149263098       19.3352118909       -4.6147667264  MEMB      135             0.0000000000
     16856       135  DOPC      H11Y          -20.5159212300       18.7555516579       -4.6264472510  MEMB      135             0.0000000000
     16857       135  DOPC      C312          -19.6721562762       19.0753705500       -2.6289505172  MEMB      135             0.0000000000
     16858       135  DOPC      H12X          -19.3491082238       18.0215787406       -2.5855782448  MEMB      135             0.0000000000
     16859       135  DOPC      H12Y          -20.6510859040       19.1308971775       -2.1046395916  MEMB      135             0.0000000000
     16860       135  DOPC      C313          -18.6233262688       19.8840928577       -1.8436333533  MEMB      135             0.0000000000
     16861       135  DOPC      H13X          -17.6509757365       19.7759342622       -2.3766931743  MEMB      135             0.0000000000
     16862       135  DOPC      H13Y          -18.8748887023       20.9644752012       -1.8060826524  MEMB      135             0.0000000000
     16863       135  DOPC      C314          -18.4650194332       19.3827211053       -0.4107262221  MEMB      135             0.0000000000
     16864       135  DOPC      H14X          -19.2320434281       19.7581923112        0.2749255378  MEMB      135             0.0000000000
     16865       135  DOPC      H14Y          -18.6633256096       18.2929565210       -0.3904519487  MEMB      135             0.0000000000
     16866       135  DOPC      C315          -17.0707135620       19.6139139042        0.1677762939  MEMB      135             0.0000000000
     16867       135  DOPC      H15X          -16.2868772205       19.3570784213       -0.5799631103  MEMB      135             0.0000000000
     16868       135  DOPC      H15Y          -17.0234006275       18.8404528538        0.9657952585  MEMB      135             0.0000000000
     16869       135  DOPC      C316          -16.7508403754       20.9849127283        0.8181923767  MEMB      135             0.0000000000
     16870       135  DOPC      H16X          -16.1867034613       20.7753793984        1.7548639026  MEMB      135             0.0000000000
     16871       135  DOPC      H16Y          -16.0483830068       21.5489908764        0.1763954468  MEMB      135             0.0000000000
     16872       135  DOPC      C317          -17.9458583795       21.8690049760        1.2116327930  MEMB      135             0.0000000000
     16873       135  DOPC      H17X          -18.3400106284       22.4038432297        0.3207061673  MEMB      135             0.0000000000
     16874       135  DOPC      H17Y          -18.7458570256       21.1911252171        1.5675965761  MEMB      135             0.0000000000
     16875       135  DOPC      C318          -17.6788561793       22.8543908855        2.3610957651  MEMB      135             0.0000000000
     16876       135  DOPC      H18X          -18.5630835353       22.9339176793        3.0264644605  MEMB      135             0.0000000000
     16877       135  DOPC      H18Y          -16.8223177576       22.5023283157        2.9760050256  MEMB      135             0.0000000000
     16878       135  DOPC      H18Z          -17.4664724780       23.8743902396        2.0035025645  MEMB      135             0.0000000000
     16879       136  DOPC      N              20.8367271238       13.8307258653      -21.0686656894  MEMB      136             0.0000000000
     16880       136  DOPC      C12            20.5743500358       13.0967246780      -19.7565073127  MEMB      136             0.0000000000
     16881       136  DOPC      H12A           21.1294295962       12.1678603564      -19.7799204499  MEMB      136             0.0000000000
     16882       136  DOPC      H12B           19.5315376993       12.8142259854      -19.6734365066  MEMB      136             0.0000000000
     16883       136  DOPC      C13            22.3195560643       13.9836423039      -21.2204794429  MEMB      136             0.0000000000
     16884       136  DOPC      H13A           22.6132924581       14.6929388708      -21.9783718253  MEMB      136             0.0000000000
     16885       136  DOPC      H13B           22.7388519795       14.3054329025      -20.2634806152  MEMB      136             0.0000000000
     16886       136  DOPC      H13C           22.7945177338       13.0265078855      -21.4321661486  MEMB      136             0.0000000000
     16887       136  DOPC      C14            20.1894757915       15.1755826898      -21.0555883687  MEMB      136             0.0000000000
     16888       136  DOPC      H14A           20.5824331961       15.7268087582      -20.2036165864  MEMB      136             0.0000000000
     16889       136  DOPC      H14B           20.3981514213       15.6997094984      -21.9785264945  MEMB      136             0.0000000000
     16890       136  DOPC      H14C           19.1191646442       15.0946971547      -20.9572854073  MEMB      136             0.0000000000
     16891       136  DOPC      C15            20.3788340105       13.0281058055      -22.2353656839  MEMB      136             0.0000000000
     16892       136  DOPC      H15A           19.3021327305       12.9579607016      -22.3287170900  MEMB      136             0.0000000000
     16893       136  DOPC      H15B           20.7791605302       12.0143054340      -22.1743089607  MEMB      136             0.0000000000
     16894       136  DOPC      H15C           20.7656197215       13.4396104273      -23.1649052459  MEMB      136             0.0000000000
     16895       136  DOPC      C11            21.0003860833       13.7855887402      -18.4360683486  MEMB      136             0.0000000000
     16896       136  DOPC      H11A           20.4929271686       14.7654164513      -18.3195263490  MEMB      136             0.0000000000
     16897       136  DOPC      H11B           20.6862860759       13.1302074830      -17.5898920521  MEMB      136             0.0000000000
     16898       136  DOPC      P              23.2461334293       14.3091772002      -17.1507051093  MEMB      136             0.0000000000
     16899       136  DOPC      O13            24.6102900447       14.6214874282      -17.6537067955  MEMB      136             0.0000000000
     16900       136  DOPC      O14            23.0807109908       13.2581036427      -16.1215643554  MEMB      136             0.0000000000
     16901       136  DOPC      O12            22.4014712125       13.9462136036      -18.4276971661  MEMB      136             0.0000000000
     16902       136  DOPC      O11            22.5654271183       15.6594411215      -16.6464075115  MEMB      136             0.0000000000
     16903       136  DOPC      C1             22.3438871403       16.7927352492      -17.4949440386  MEMB      136             0.0000000000
     16904       136  DOPC      HA             22.0616456117       16.4960962460      -18.5283496913  MEMB      136             0.0000000000
     16905       136  DOPC      HB             23.3048435861       17.3572538701      -17.5478649333  MEMB      136             0.0000000000
     16906       136  DOPC      C2             21.2650085570       17.8086537324      -16.9545564277  MEMB      136             0.0000000000
     16907       136  DOPC      HS             21.6479676679       18.8353742374      -17.1694225919  MEMB      136             0.0000000000
     16908       136  DOPC      O21            21.0554107134       17.6372343016      -15.5550843214  MEMB      136             0.0000000000
     16909       136  DOPC      C21            22.0082633515       18.0966992842      -14.7789835688  MEMB      136             0.0000000000
     16910       136  DOPC      O22            22.8830175235       18.8833940035      -15.1175240227  MEMB      136             0.0000000000
     16911       136  DOPC      C22            21.7256909598       17.6288125172      -13.3451895433  MEMB      136             0.0000000000
     16912       136  DOPC      H2R            20.6217000516       17.5155123925      -13.2487339833  MEMB      136             0.0000000000
     16913       136  DOPC      H2S            22.0645677550       18.4255563413      -12.6544332014  MEMB      136             0.0000000000
     16914       136  DOPC      C3             19.8500620369       17.7671370080      -17.6317597433  MEMB      136             0.0000000000
     16915       136  DOPC      HX             19.9941360805       17.9726532889      -18.7123880057  MEMB      136             0.0000000000
     16916       136  DOPC      HY             19.2651730642       18.6239906112      -17.2199782038  MEMB      136             0.0000000000
     16917       136  DOPC      O31            19.1218668855       16.5240604712      -17.4891500242  MEMB      136             0.0000000000
     16918       136  DOPC      C31            18.4230661666       16.3968963322      -16.3612256311  MEMB      136             0.0000000000
     16919       136  DOPC      O32            18.2250172297       17.2688107996      -15.5343558524  MEMB      136             0.0000000000
     16920       136  DOPC      C32            17.8947766726       14.9733998300      -16.2541884630  MEMB      136             0.0000000000
     16921       136  DOPC      H2X            16.7956860091       14.9800832918      -16.3692983370  MEMB      136             0.0000000000
     16922       136  DOPC      H2Y            18.3424862141       14.3353531383      -17.0397112279  MEMB      136             0.0000000000
     16923       136  DOPC      C23            22.3460889396       16.2774655093      -12.9852794497  MEMB      136             0.0000000000
     16924       136  DOPC      H3R            22.1098366450       15.5374389669      -13.7788888758  MEMB      136             0.0000000000
     16925       136  DOPC      H3S            21.9462559940       15.9227712888      -12.0095792045  MEMB      136             0.0000000000
     16926       136  DOPC      C24            23.8465243220       16.3521277738      -12.8664988732  MEMB      136             0.0000000000
     16927       136  DOPC      H4R            24.0893933381       16.9356193708      -11.9501476139  MEMB      136             0.0000000000
     16928       136  DOPC      H4S            24.1875184743       16.8740320535      -13.7842720615  MEMB      136             0.0000000000
     16929       136  DOPC      C25            24.5091188726       14.9890676425      -12.7262055878  MEMB      136             0.0000000000
     16930       136  DOPC      H5R            25.6154695967       15.1059686011      -12.6915437957  MEMB      136             0.0000000000
     16931       136  DOPC      H5S            24.2510607987       14.3543957481      -13.6069972599  MEMB      136             0.0000000000
     16932       136  DOPC      C26            24.0250967087       14.3409184155      -11.4374444407  MEMB      136             0.0000000000
     16933       136  DOPC      H6R            23.0283470508       13.8947059878      -11.6535672134  MEMB      136             0.0000000000
     16934       136  DOPC      H6S            23.8549303647       15.1206736897      -10.6599078065  MEMB      136             0.0000000000
     16935       136  DOPC      C27            25.0153891790       13.3223900861      -10.8638669460  MEMB      136             0.0000000000
     16936       136  DOPC      H7R            25.9311313572       13.8529930146      -10.5223975304  MEMB      136             0.0000000000
     16937       136  DOPC      H7S            25.3142764604       12.6097963948      -11.6681468489  MEMB      136             0.0000000000
     16938       136  DOPC      C28            24.4043103730       12.5737607228       -9.6835848366  MEMB      136             0.0000000000
     16939       136  DOPC      H8R            24.0796579381       13.3111403419       -8.9132525241  MEMB      136             0.0000000000
     16940       136  DOPC      H8S            25.1348000641       11.8766272399       -9.2207242387  MEMB      136             0.0000000000
     16941       136  DOPC      C29            23.2319017244       11.8330988548      -10.2342960102  MEMB      136             0.0000000000
     16942       136  DOPC      H9R            23.2567352430       11.5871915094      -11.3104971878  MEMB      136             0.0000000000
     16943       136  DOPC      C210           22.1702907297       11.4822821454       -9.5273316135  MEMB      136             0.0000000000
     16944       136  DOPC      H10R           21.3573396646       10.9946378470      -10.0695880971  MEMB      136             0.0000000000
     16945       136  DOPC      C211           21.9780227186       11.7641116082       -8.0674680362  MEMB      136             0.0000000000
     16946       136  DOPC      H11R           22.9445034971       11.7572584954       -7.5134696087  MEMB      136             0.0000000000
     16947       136  DOPC      H11S           21.3519425288       10.9768692087       -7.6090423678  MEMB      136             0.0000000000
     16948       136  DOPC      C212           21.3363894540       13.1395502159       -7.8468271010  MEMB      136             0.0000000000
     16949       136  DOPC      H12R           21.6912266639       13.7836913939       -8.6645682197  MEMB      136             0.0000000000
     16950       136  DOPC      H12S           21.7808377024       13.5270600042       -6.9112592319  MEMB      136             0.0000000000
     16951       136  DOPC      C213           19.8084495675       13.0988098189       -7.6514666094  MEMB      136             0.0000000000
     16952       136  DOPC      H13R           19.5824385053       12.0801438714       -7.3306590806  MEMB      136             0.0000000000
     16953       136  DOPC      H13S           19.2267349950       13.1178746408       -8.5690958795  MEMB      136             0.0000000000
     16954       136  DOPC      C214           19.1893115481       13.9056386884       -6.5056160138  MEMB      136             0.0000000000
     16955       136  DOPC      H14R           18.1046775576       13.6489407980       -6.4993337659  MEMB      136             0.0000000000
     16956       136  DOPC      H14S           19.2343072900       14.9966003647       -6.7046048281  MEMB      136             0.0000000000
     16957       136  DOPC      C215           19.8346638430       13.5636447454       -5.1402858328  MEMB      136             0.0000000000
     16958       136  DOPC      H15R           19.1278710812       13.8390255923       -4.3310946592  MEMB      136             0.0000000000
     16959       136  DOPC      H15S           20.7208802336       14.2287715054       -5.0378239292  MEMB      136             0.0000000000
     16960       136  DOPC      C216           20.2902055534       12.0841925423       -4.9457723383  MEMB      136             0.0000000000
     16961       136  DOPC      H16R           20.7656092322       11.7011873373       -5.8551342785  MEMB      136             0.0000000000
     16962       136  DOPC      H16S           19.4149548030       11.4334595244       -4.7560577417  MEMB      136             0.0000000000
     16963       136  DOPC      C217           21.4259643539       11.8615090339       -3.9261272926  MEMB      136             0.0000000000
     16964       136  DOPC      H17R           21.4848093360       12.8434903779       -3.4342882486  MEMB      136             0.0000000000
     16965       136  DOPC      H17S           22.3896773258       11.6881351042       -4.4616999347  MEMB      136             0.0000000000
     16966       136  DOPC      C218           21.1517329372       10.8001531877       -2.8558779404  MEMB      136             0.0000000000
     16967       136  DOPC      H18R           21.5869645728       10.9694797555       -1.8450861138  MEMB      136             0.0000000000
     16968       136  DOPC      H18S           21.4118989520        9.7760979355       -3.1301546279  MEMB      136             0.0000000000
     16969       136  DOPC      H18T           20.0612387955       10.7827729333       -2.7985142706  MEMB      136             0.0000000000
     16970       136  DOPC      C33            18.2753325261       14.3910990943      -14.8893135441  MEMB      136             0.0000000000
     16971       136  DOPC      H3X            17.8748829776       13.3608612302      -14.7922930755  MEMB      136             0.0000000000
     16972       136  DOPC      H3Y            17.7554296206       14.9827376157      -14.1106864278  MEMB      136             0.0000000000
     16973       136  DOPC      C34            19.7988525179       14.3960902063      -14.6743416085  MEMB      136             0.0000000000
     16974       136  DOPC      H4X            20.0936356104       15.4276157375      -14.3772761712  MEMB      136             0.0000000000
     16975       136  DOPC      H4Y            20.3363759002       14.1660814238      -15.6195961369  MEMB      136             0.0000000000
     16976       136  DOPC      C35            20.2882948678       13.4176906869      -13.6051738455  MEMB      136             0.0000000000
     16977       136  DOPC      H5X            21.3113333974       13.6996985633      -13.2699507660  MEMB      136             0.0000000000
     16978       136  DOPC      H5Y            20.3888450985       12.3956907097      -14.0253060523  MEMB      136             0.0000000000
     16979       136  DOPC      C36            19.3546287756       13.3892010919      -12.4017424845  MEMB      136             0.0000000000
     16980       136  DOPC      H6X            18.3907389413       12.8887799533      -12.6363178396  MEMB      136             0.0000000000
     16981       136  DOPC      H6Y            19.8676204374       12.7674469698      -11.6324337841  MEMB      136             0.0000000000
     16982       136  DOPC      C37            19.0781611595       14.7810648941      -11.8203681635  MEMB      136             0.0000000000
     16983       136  DOPC      H7X            19.9588748354       15.4391665301      -11.9728599659  MEMB      136             0.0000000000
     16984       136  DOPC      H7Y            18.1993525387       15.2850394001      -12.2632774181  MEMB      136             0.0000000000
     16985       136  DOPC      C38            18.8530044612       14.5931487598      -10.3432117956  MEMB      136             0.0000000000
     16986       136  DOPC      H8X            19.8445973795       14.1883801431      -10.0394177917  MEMB      136             0.0000000000
     16987       136  DOPC      H8Y            18.1111063779       13.7746942311      -10.1943609586  MEMB      136             0.0000000000
     16988       136  DOPC      C39            18.4911829313       15.7894180255       -9.5190263373  MEMB      136             0.0000000000
     16989       136  DOPC      H9X            17.4275326175       15.9431196490       -9.3227887835  MEMB      136             0.0000000000
     16990       136  DOPC      C310           19.3813818897       16.6285748218       -8.9906359612  MEMB      136             0.0000000000
     16991       136  DOPC      H10X           19.0414343476       17.4268183638       -8.3165653536  MEMB      136             0.0000000000
     16992       136  DOPC      C311           20.8651914403       16.4858333682       -9.1554514234  MEMB      136             0.0000000000
     16993       136  DOPC      H11X           21.2001006394       16.9071937846      -10.1234955857  MEMB      136             0.0000000000
     16994       136  DOPC      H11Y           21.1797573280       15.4450442753       -9.2185565012  MEMB      136             0.0000000000
     16995       136  DOPC      C312           21.6185019896       17.1438493939       -8.0077283420  MEMB      136             0.0000000000
     16996       136  DOPC      H12X           21.1764291711       18.1354947036       -7.7968841208  MEMB      136             0.0000000000
     16997       136  DOPC      H12Y           22.6824538292       17.2612019446       -8.3232373095  MEMB      136             0.0000000000
     16998       136  DOPC      C313           21.6029059900       16.4463172523       -6.6594741015  MEMB      136             0.0000000000
     16999       136  DOPC      H13X           20.5983355750       16.5016067894       -6.1886386172  MEMB      136             0.0000000000
     17000       136  DOPC      H13Y           21.8863787857       15.3941788722       -6.7676387314  MEMB      136             0.0000000000
     17001       136  DOPC      C314           22.6556674861       17.1014637689       -5.7881882920  MEMB      136             0.0000000000
     17002       136  DOPC      H14X           23.6601997880       16.8102508621       -6.1728207851  MEMB      136             0.0000000000
     17003       136  DOPC      H14Y           22.5581934994       18.2075783595       -5.8836018284  MEMB      136             0.0000000000
     17004       136  DOPC      C315           22.5438890126       16.7467354661       -4.3170090607  MEMB      136             0.0000000000
     17005       136  DOPC      H15X           22.3549665457       15.6635315637       -4.1641299711  MEMB      136             0.0000000000
     17006       136  DOPC      H15Y           21.6621157433       17.2993774542       -3.9252876785  MEMB      136             0.0000000000
     17007       136  DOPC      C316           23.8420100856       17.1758578462       -3.6389322136  MEMB      136             0.0000000000
     17008       136  DOPC      H16X           24.6675387849       16.5095436492       -3.9805456883  MEMB      136             0.0000000000
     17009       136  DOPC      H16Y           24.0871453102       18.2040591189       -3.9884454217  MEMB      136             0.0000000000
     17010       136  DOPC      C317           23.8050996963       17.1707514366       -2.1170957277  MEMB      136             0.0000000000
     17011       136  DOPC      H17X           23.8827371965       16.1301673551       -1.7573719512  MEMB      136             0.0000000000
     17012       136  DOPC      H17Y           24.7228460251       17.6757567038       -1.7588000809  MEMB      136             0.0000000000
     17013       136  DOPC      C318           22.5779506188       17.8140803289       -1.4765465725  MEMB      136             0.0000000000
     17014       136  DOPC      H18X           22.5598274010       18.9137904958       -1.6286566272  MEMB      136             0.0000000000
     17015       136  DOPC      H18Y           21.6283236429       17.3831989045       -1.8563174840  MEMB      136             0.0000000000
     17016       136  DOPC      H18Z           22.6285937773       17.6059294291       -0.3921168962  MEMB      136             0.0000000000
     17017       137  DOPE      N             -25.1365141705       -3.9247811395      -18.6553076681  MEMB      137             0.0000000000
     17018       137  DOPE      HN1           -26.0555079151       -3.4723325817      -18.8286379357  MEMB      137             0.0000000000
     17019       137  DOPE      HN2           -25.1813151845       -4.4070798685      -17.7353084535  MEMB      137             0.0000000000
     17020       137  DOPE      HN3           -24.4385410037       -3.1468926693      -18.6146755402  MEMB      137             0.0000000000
     17021       137  DOPE      C12           -24.7688164799       -4.9073989304      -19.7491144149  MEMB      137             0.0000000000
     17022       137  DOPE      H12A          -23.8357054527       -5.4193234697      -19.4403201850  MEMB      137             0.0000000000
     17023       137  DOPE      H12B          -24.5490178549       -4.3181882572      -20.6631767926  MEMB      137             0.0000000000
     17024       137  DOPE      C11           -25.8858918808       -5.9365381190      -20.0323926367  MEMB      137             0.0000000000
     17025       137  DOPE      H11A          -25.6227019453       -6.4962306559      -20.9646271347  MEMB      137             0.0000000000
     17026       137  DOPE      H11B          -26.8273869565       -5.4038363749      -20.2941645118  MEMB      137             0.0000000000
     17027       137  DOPE      P             -25.3785852393       -8.2190393028      -18.8184580868  MEMB      137             0.0000000000
     17028       137  DOPE      O13           -24.3048807977       -8.0944767969      -17.8148455652  MEMB      137             0.0000000000
     17029       137  DOPE      O14           -25.0049414195       -8.6362379644      -20.1922997378  MEMB      137             0.0000000000
     17030       137  DOPE      O11           -26.5332069713       -9.1739268040      -18.3083806524  MEMB      137             0.0000000000
     17031       137  DOPE      O12           -26.1179419500       -6.7979894320      -18.9064498499  MEMB      137             0.0000000000
     17032       137  DOPE      C1            -27.6235348306       -8.7129222076      -17.5055862724  MEMB      137             0.0000000000
     17033       137  DOPE      HA            -28.2304971696       -9.6036245794      -17.2274116676  MEMB      137             0.0000000000
     17034       137  DOPE      HB            -28.2858599406       -8.0332559016      -18.0841420616  MEMB      137             0.0000000000
     17035       137  DOPE      C2            -27.2551182029       -8.0105574223      -16.1543067600  MEMB      137             0.0000000000
     17036       137  DOPE      HS            -26.7741049892       -7.0399750479      -16.4085974330  MEMB      137             0.0000000000
     17037       137  DOPE      O21           -26.3846378975       -8.8659282558      -15.3840151306  MEMB      137             0.0000000000
     17038       137  DOPE      C21           -25.3743339083       -8.2415792766      -14.7798687106  MEMB      137             0.0000000000
     17039       137  DOPE      O22           -25.1728678045       -7.0390042066      -14.7623953164  MEMB      137             0.0000000000
     17040       137  DOPE      C22           -24.4759663503       -9.2541062449      -14.0612983147  MEMB      137             0.0000000000
     17041       137  DOPE      H2R           -23.6674525417       -8.6775972640      -13.5645450341  MEMB      137             0.0000000000
     17042       137  DOPE      H2S           -24.0215517566       -9.8924976183      -14.8471855669  MEMB      137             0.0000000000
     17043       137  DOPE      C3            -28.5882474171       -7.7169885779      -15.3940739011  MEMB      137             0.0000000000
     17044       137  DOPE      HX            -29.1319973936       -8.6909898890      -15.4104570238  MEMB      137             0.0000000000
     17045       137  DOPE      HY            -29.1859682393       -6.9784260010      -15.9719047129  MEMB      137             0.0000000000
     17046       137  DOPE      O31           -28.3924905563       -7.2320434372      -14.0506767149  MEMB      137             0.0000000000
     17047       137  DOPE      C31           -29.3967263532       -7.5716933799      -13.2240211912  MEMB      137             0.0000000000
     17048       137  DOPE      O32           -30.3971821146       -8.1814635101      -13.5474346395  MEMB      137             0.0000000000
     17049       137  DOPE      C32           -29.0044327438       -7.2421448299      -11.7900370118  MEMB      137             0.0000000000
     17050       137  DOPE      H2X           -28.6549951965       -8.2029535938      -11.3585344994  MEMB      137             0.0000000000
     17051       137  DOPE      H2Y           -28.1575465611       -6.5241653061      -11.7875625258  MEMB      137             0.0000000000
     17052       137  DOPE      C23           -25.1923820977      -10.1409351074      -13.0162339501  MEMB      137             0.0000000000
     17053       137  DOPE      H3R           -24.4588112839      -10.8971942672      -12.6485374185  MEMB      137             0.0000000000
     17054       137  DOPE      H3S           -26.0336687439      -10.6978390731      -13.4879819341  MEMB      137             0.0000000000
     17055       137  DOPE      C24           -25.7244417076       -9.3891522285      -11.7938575052  MEMB      137             0.0000000000
     17056       137  DOPE      H4R           -26.5891088456       -8.7633813332      -12.1002570721  MEMB      137             0.0000000000
     17057       137  DOPE      H4S           -24.9524058096       -8.7108117580      -11.3643926238  MEMB      137             0.0000000000
     17058       137  DOPE      C25           -26.1562631860      -10.3898658469      -10.7222077799  MEMB      137             0.0000000000
     17059       137  DOPE      H5R           -25.2451726625      -10.7047826865      -10.1645432091  MEMB      137             0.0000000000
     17060       137  DOPE      H5S           -26.5666123940      -11.3009789196      -11.2029308237  MEMB      137             0.0000000000
     17061       137  DOPE      C26           -27.2101780729       -9.8597473940       -9.7489153829  MEMB      137             0.0000000000
     17062       137  DOPE      H6R           -28.2223553756      -10.1813058719      -10.0829365371  MEMB      137             0.0000000000
     17063       137  DOPE      H6S           -27.1846244349       -8.7508573655       -9.7379256611  MEMB      137             0.0000000000
     17064       137  DOPE      C27           -26.9265451126      -10.3645284668       -8.3386671883  MEMB      137             0.0000000000
     17065       137  DOPE      H7R           -26.5858185227      -11.4211754271       -8.4233127985  MEMB      137             0.0000000000
     17066       137  DOPE      H7S           -27.8437212888      -10.3199171051       -7.7084304474  MEMB      137             0.0000000000
     17067       137  DOPE      C28           -25.8327078584       -9.5279997705       -7.6908291754  MEMB      137             0.0000000000
     17068       137  DOPE      H8R           -26.2615779463       -8.5181214841       -7.4989001924  MEMB      137             0.0000000000
     17069       137  DOPE      H8S           -25.0015956248       -9.3926293881       -8.4184938116  MEMB      137             0.0000000000
     17070       137  DOPE      C29           -25.2967169851      -10.1513746398       -6.4382169617  MEMB      137             0.0000000000
     17071       137  DOPE      H9R           -25.6098456612      -11.1799379185       -6.2006624385  MEMB      137             0.0000000000
     17072       137  DOPE      C210          -24.4759392034       -9.4899027726       -5.6230237267  MEMB      137             0.0000000000
     17073       137  DOPE      H10R          -24.1428894272       -9.9612627500       -4.6865112516  MEMB      137             0.0000000000
     17074       137  DOPE      C211          -24.0126941493       -8.0771865105       -5.8629236593  MEMB      137             0.0000000000
     17075       137  DOPE      H11R          -24.5462462834       -7.5603988103       -6.6924591581  MEMB      137             0.0000000000
     17076       137  DOPE      H11S          -22.9321595839       -8.0393491870       -6.1198160158  MEMB      137             0.0000000000
     17077       137  DOPE      C212          -24.2628566848       -7.2919021652       -4.5824193804  MEMB      137             0.0000000000
     17078       137  DOPE      H12R          -25.2708878637       -7.4431832104       -4.1418888374  MEMB      137             0.0000000000
     17079       137  DOPE      H12S          -24.1107053240       -6.2058700619       -4.7950902687  MEMB      137             0.0000000000
     17080       137  DOPE      C213          -23.2833720458       -7.6362959141       -3.5148971763  MEMB      137             0.0000000000
     17081       137  DOPE      H13R          -22.3243297572       -7.4435647345       -4.0241283609  MEMB      137             0.0000000000
     17082       137  DOPE      H13S          -23.3104243918       -8.6965834581       -3.1893049610  MEMB      137             0.0000000000
     17083       137  DOPE      C214          -23.3995694944       -6.6691760131       -2.3649973835  MEMB      137             0.0000000000
     17084       137  DOPE      H14R          -23.8670147984       -5.7232338458       -2.7194051644  MEMB      137             0.0000000000
     17085       137  DOPE      H14S          -22.3579223814       -6.4253097098       -2.1042248801  MEMB      137             0.0000000000
     17086       137  DOPE      C215          -24.1660368764       -7.2317904820       -1.1717608420  MEMB      137             0.0000000000
     17087       137  DOPE      H15R          -25.1435130739       -7.6444241977       -1.5126525521  MEMB      137             0.0000000000
     17088       137  DOPE      H15S          -24.3805300589       -6.3766508395       -0.4932247346  MEMB      137             0.0000000000
     17089       137  DOPE      C216          -23.3767615093       -8.3020217975       -0.3977296033  MEMB      137             0.0000000000
     17090       137  DOPE      H16R          -22.2880569913       -8.0891817767       -0.4539251606  MEMB      137             0.0000000000
     17091       137  DOPE      H16S          -23.5229407483       -9.2807935520       -0.8974521098  MEMB      137             0.0000000000
     17092       137  DOPE      C217          -23.7841334554       -8.3832855256        1.0833927975  MEMB      137             0.0000000000
     17093       137  DOPE      H17R          -24.6047648195       -7.6559422880        1.2237901239  MEMB      137             0.0000000000
     17094       137  DOPE      H17S          -22.9668508410       -7.9909822644        1.7203654755  MEMB      137             0.0000000000
     17095       137  DOPE      C218          -24.0983808436       -9.8026123109        1.5928311611  MEMB      137             0.0000000000
     17096       137  DOPE      H18R          -25.1452847831      -10.0148058118        1.8726383209  MEMB      137             0.0000000000
     17097       137  DOPE      H18S          -23.4722000971      -10.0285124609        2.4813359718  MEMB      137             0.0000000000
     17098       137  DOPE      H18T          -23.8386421262      -10.5319781287        0.8048626015  MEMB      137             0.0000000000
     17099       137  DOPE      C33           -30.1730504982       -6.7169971477      -10.9233505391  MEMB      137             0.0000000000
     17100       137  DOPE      H3X           -31.1453529034       -7.1377175650      -11.2622237257  MEMB      137             0.0000000000
     17101       137  DOPE      H3Y           -30.2276641928       -5.6095110600      -11.0304123119  MEMB      137             0.0000000000
     17102       137  DOPE      C34           -29.9901379211       -7.0791832759       -9.4446002628  MEMB      137             0.0000000000
     17103       137  DOPE      H4X           -30.8522670744       -6.6965668952       -8.8538674655  MEMB      137             0.0000000000
     17104       137  DOPE      H4Y           -29.9431326607       -8.1839057139       -9.3251926953  MEMB      137             0.0000000000
     17105       137  DOPE      C35           -28.7189085968       -6.4557178913       -8.8953584000  MEMB      137             0.0000000000
     17106       137  DOPE      H5X           -28.7583631196       -5.3601753876       -9.0831518374  MEMB      137             0.0000000000
     17107       137  DOPE      H5Y           -27.8191374597       -6.8267144731       -9.4341166592  MEMB      137             0.0000000000
     17108       137  DOPE      C36           -28.5159855889       -6.6677724756       -7.4030206873  MEMB      137             0.0000000000
     17109       137  DOPE      H6X           -28.3276562946       -7.7382907558       -7.1686564952  MEMB      137             0.0000000000
     17110       137  DOPE      H6Y           -29.4059971553       -6.3380255778       -6.8237193435  MEMB      137             0.0000000000
     17111       137  DOPE      C37           -27.3224782596       -5.8010596992       -7.0439030339  MEMB      137             0.0000000000
     17112       137  DOPE      H7X           -26.5118179421       -6.0044567225       -7.7880234481  MEMB      137             0.0000000000
     17113       137  DOPE      H7Y           -27.6260655050       -4.7517674865       -7.1283071835  MEMB      137             0.0000000000
     17114       137  DOPE      C38           -26.7310526653       -6.0047706910       -5.6744525646  MEMB      137             0.0000000000
     17115       137  DOPE      H8X           -25.7466223302       -5.4983296756       -5.6972884064  MEMB      137             0.0000000000
     17116       137  DOPE      H8Y           -26.5575530771       -7.0966817117       -5.6225695057  MEMB      137             0.0000000000
     17117       137  DOPE      C39           -27.4635409089       -5.4674318861       -4.4877573016  MEMB      137             0.0000000000
     17118       137  DOPE      H9X           -27.4966499108       -4.3704007500       -4.4030459891  MEMB      137             0.0000000000
     17119       137  DOPE      C310          -28.0301662513       -6.2198573399       -3.5425686973  MEMB      137             0.0000000000
     17120       137  DOPE      H10X          -28.4225569298       -5.7034675165       -2.6667405031  MEMB      137             0.0000000000
     17121       137  DOPE      C311          -28.0567984462       -7.7256466368       -3.4738194679  MEMB      137             0.0000000000
     17122       137  DOPE      H11X          -27.3717708166       -8.2027242480       -4.2053393203  MEMB      137             0.0000000000
     17123       137  DOPE      H11Y          -27.6776553959       -8.0363283024       -2.4928066135  MEMB      137             0.0000000000
     17124       137  DOPE      C312          -29.4553651313       -8.3299956268       -3.6999841739  MEMB      137             0.0000000000
     17125       137  DOPE      H12X          -29.8458061446       -7.9141918085       -4.6585563332  MEMB      137             0.0000000000
     17126       137  DOPE      H12Y          -30.1543543585       -8.0279537609       -2.8904095880  MEMB      137             0.0000000000
     17127       137  DOPE      C313          -29.4339933816       -9.8664292239       -3.8224025951  MEMB      137             0.0000000000
     17128       137  DOPE      H13X          -30.3631298261      -10.1859233308       -4.3446065620  MEMB      137             0.0000000000
     17129       137  DOPE      H13Y          -28.5823699405      -10.1599669657       -4.4785470139  MEMB      137             0.0000000000
     17130       137  DOPE      C314          -29.3331381548      -10.6188102364       -2.4778365512  MEMB      137             0.0000000000
     17131       137  DOPE      H14X          -30.1680640981      -11.3532372201       -2.4115064258  MEMB      137             0.0000000000
     17132       137  DOPE      H14Y          -29.4691766351       -9.8989602548       -1.6404282731  MEMB      137             0.0000000000
     17133       137  DOPE      C315          -27.9797140277      -11.3533584808       -2.3420291762  MEMB      137             0.0000000000
     17134       137  DOPE      H15X          -27.1932682485      -10.5997100942       -2.5538829447  MEMB      137             0.0000000000
     17135       137  DOPE      H15Y          -27.9181573559      -12.1010918437       -3.1575696992  MEMB      137             0.0000000000
     17136       137  DOPE      C316          -27.7197060246      -12.0564090051       -0.9867851082  MEMB      137             0.0000000000
     17137       137  DOPE      H16X          -28.1210039831      -13.0798091668       -1.0471196188  MEMB      137             0.0000000000
     17138       137  DOPE      H16Y          -28.3000862680      -11.6021782034       -0.1650916843  MEMB      137             0.0000000000
     17139       137  DOPE      C317          -26.2563105115      -12.2616576625       -0.5363346562  MEMB      137             0.0000000000
     17140       137  DOPE      H17X          -26.2021075395      -12.0412532500        0.5565944965  MEMB      137             0.0000000000
     17141       137  DOPE      H17Y          -26.0049040274      -13.3409344936       -0.6472199849  MEMB      137             0.0000000000
     17142       137  DOPE      C318          -25.1709471177      -11.4708529316       -1.2579910841  MEMB      137             0.0000000000
     17143       137  DOPE      H18X          -24.1725545618      -11.8198656201       -0.9137316909  MEMB      137             0.0000000000
     17144       137  DOPE      H18Y          -25.2303801480      -11.6097194428       -2.3577898251  MEMB      137             0.0000000000
     17145       137  DOPE      H18Z          -25.2740871516      -10.3897811320       -1.0304002553  MEMB      137             0.0000000000
     17146       138  CHL1      C3             -4.2011321522       26.2562483245      -17.4187731102  MEMB      138             0.0000000000
     17147       138  CHL1      H3             -3.1197500707       26.0050316965      -17.3858228083  MEMB      138             0.0000000000
     17148       138  CHL1      O3             -4.6002123593       26.3437565382      -18.7783150877  MEMB      138             0.0000000000
     17149       138  CHL1      H3'            -4.9454012517       25.4749669549      -19.0252133280  MEMB      138             0.0000000000
     17150       138  CHL1      C4             -5.0406312644       25.1783670461      -16.6932779339  MEMB      138             0.0000000000
     17151       138  CHL1      H4A            -6.1122298122       25.3606961717      -16.9368981871  MEMB      138             0.0000000000
     17152       138  CHL1      H4B            -4.7787684484       24.1968988511      -17.1468091789  MEMB      138             0.0000000000
     17153       138  CHL1      C5             -4.8492409637       25.1619192417      -15.1822175693  MEMB      138             0.0000000000
     17154       138  CHL1      C6             -4.5259572600       24.0485382221      -14.5056235987  MEMB      138             0.0000000000
     17155       138  CHL1      H6             -4.4085692104       23.1042567223      -15.0534378764  MEMB      138             0.0000000000
     17156       138  CHL1      C7             -4.3625502841       23.9926084248      -13.0113155738  MEMB      138             0.0000000000
     17157       138  CHL1      H7A            -4.8782417939       23.1014651986      -12.6007026305  MEMB      138             0.0000000000
     17158       138  CHL1      H7B            -3.2832658844       23.8978351738      -12.7647866338  MEMB      138             0.0000000000
     17159       138  CHL1      C8             -4.9170773848       25.2455877003      -12.2790303471  MEMB      138             0.0000000000
     17160       138  CHL1      H8             -6.0260119235       25.1689860483      -12.2483183428  MEMB      138             0.0000000000
     17161       138  CHL1      C14            -4.3677034372       25.3248523183      -10.8639008346  MEMB      138             0.0000000000
     17162       138  CHL1      H14            -3.2616285232       25.4666900655      -10.9940342662  MEMB      138             0.0000000000
     17163       138  CHL1      C15            -4.4965287463       24.0882836583       -9.9680624921  MEMB      138             0.0000000000
     17164       138  CHL1      H15A           -5.4980369599       23.6546424768      -10.1007012727  MEMB      138             0.0000000000
     17165       138  CHL1      H15B           -3.7050001184       23.3608096187      -10.2290731835  MEMB      138             0.0000000000
     17166       138  CHL1      C16            -4.3774832607       24.5842998010       -8.5305000634  MEMB      138             0.0000000000
     17167       138  CHL1      H16A           -5.3397074890       24.4195040676       -7.9985383835  MEMB      138             0.0000000000
     17168       138  CHL1      H16B           -3.5823995149       24.0709920294       -7.9569033751  MEMB      138             0.0000000000
     17169       138  CHL1      C17            -4.1049806437       26.0943271187       -8.7065771800  MEMB      138             0.0000000000
     17170       138  CHL1      H17            -3.0143436124       26.1781257952       -8.9398369339  MEMB      138             0.0000000000
     17171       138  CHL1      C13            -4.8345307079       26.4949368006      -10.0147562244  MEMB      138             0.0000000000
     17172       138  CHL1      C18            -6.3704604080       26.4657841622       -9.7769077894  MEMB      138             0.0000000000
     17173       138  CHL1      H18A           -6.6701610920       27.3252713758       -9.1421254573  MEMB      138             0.0000000000
     17174       138  CHL1      H18B           -6.9245580589       26.5410344130      -10.7338388498  MEMB      138             0.0000000000
     17175       138  CHL1      H18C           -6.7033156517       25.5374975535       -9.2746237005  MEMB      138             0.0000000000
     17176       138  CHL1      C12            -4.4053723992       27.7781442092      -10.7509803201  MEMB      138             0.0000000000
     17177       138  CHL1      H12A           -4.8159432869       28.6736710702      -10.2418759455  MEMB      138             0.0000000000
     17178       138  CHL1      H12B           -3.2966794265       27.8482832079      -10.7490919668  MEMB      138             0.0000000000
     17179       138  CHL1      C11            -4.8983196253       27.7950078772      -12.2052569978  MEMB      138             0.0000000000
     17180       138  CHL1      H11A           -6.0010454412       27.9136752358      -12.1696006906  MEMB      138             0.0000000000
     17181       138  CHL1      H11B           -4.4718944436       28.6958732383      -12.6917319131  MEMB      138             0.0000000000
     17182       138  CHL1      C9             -4.5136664115       26.5213664247      -13.0105187232  MEMB      138             0.0000000000
     17183       138  CHL1      H9             -3.3943395490       26.5111334858      -13.0315403722  MEMB      138             0.0000000000
     17184       138  CHL1      C10            -4.9642201640       26.5309674136      -14.4916777543  MEMB      138             0.0000000000
     17185       138  CHL1      C19            -6.4629779172       26.9108903078      -14.5402703891  MEMB      138             0.0000000000
     17186       138  CHL1      H19A           -7.0457067877       26.2076735162      -13.9118666225  MEMB      138             0.0000000000
     17187       138  CHL1      H19B           -6.6305332525       27.9310946167      -14.1608916860  MEMB      138             0.0000000000
     17188       138  CHL1      H19C           -6.8754816866       26.8803502351      -15.5679125415  MEMB      138             0.0000000000
     17189       138  CHL1      C1             -4.0701565836       27.5403539349      -15.2612485093  MEMB      138             0.0000000000
     17190       138  CHL1      H1A            -4.1641152021       28.5426763918      -14.7992861997  MEMB      138             0.0000000000
     17191       138  CHL1      H1B            -3.0049508684       27.2335915349      -15.1390839518  MEMB      138             0.0000000000
     17192       138  CHL1      C2             -4.3821364003       27.6233664079      -16.7629330706  MEMB      138             0.0000000000
     17193       138  CHL1      H2A            -3.7299009413       28.3747049651      -17.2606340957  MEMB      138             0.0000000000
     17194       138  CHL1      H2B            -5.4363346676       27.9297418935      -16.9088965859  MEMB      138             0.0000000000
     17195       138  CHL1      C20            -4.3020180979       26.8851449006       -7.4323712928  MEMB      138             0.0000000000
     17196       138  CHL1      H20            -5.3721244269       26.8694471978       -7.1161682592  MEMB      138             0.0000000000
     17197       138  CHL1      C21            -3.9159810183       28.3017761764       -7.7760315522  MEMB      138             0.0000000000
     17198       138  CHL1      H21A           -3.5446319893       28.8980145568       -6.9293132931  MEMB      138             0.0000000000
     17199       138  CHL1      H21B           -4.8522270293       28.7726948037       -8.1501339470  MEMB      138             0.0000000000
     17200       138  CHL1      H21C           -3.1314063243       28.3527052141       -8.5583997610  MEMB      138             0.0000000000
     17201       138  CHL1      C22            -3.4377719998       26.3757972706       -6.2640243851  MEMB      138             0.0000000000
     17202       138  CHL1      H22A           -2.6388771383       25.7030955157       -6.6449848594  MEMB      138             0.0000000000
     17203       138  CHL1      H22B           -2.9204732171       27.2192064764       -5.7596117229  MEMB      138             0.0000000000
     17204       138  CHL1      C23            -4.2913023975       25.6504911146       -5.2258278639  MEMB      138             0.0000000000
     17205       138  CHL1      H23A           -4.9229270112       26.3766013964       -4.6676617539  MEMB      138             0.0000000000
     17206       138  CHL1      H23B           -4.9849402689       24.9879069534       -5.7820902292  MEMB      138             0.0000000000
     17207       138  CHL1      C24            -3.4252771131       24.8426232545       -4.2587977695  MEMB      138             0.0000000000
     17208       138  CHL1      H24A           -2.5787683979       24.3871211874       -4.8223070536  MEMB      138             0.0000000000
     17209       138  CHL1      H24B           -2.9918696259       25.5295096650       -3.4991901020  MEMB      138             0.0000000000
     17210       138  CHL1      C25            -4.1836024066       23.7030912481       -3.5643417532  MEMB      138             0.0000000000
     17211       138  CHL1      H25            -5.0942969108       24.1207854739       -3.0726978352  MEMB      138             0.0000000000
     17212       138  CHL1      C26            -4.6096185218       22.6373818738       -4.5763382269  MEMB      138             0.0000000000
     17213       138  CHL1      H26A           -5.3570422706       23.0489981674       -5.2833319158  MEMB      138             0.0000000000
     17214       138  CHL1      H26B           -3.7357815801       22.2765593810       -5.1600342242  MEMB      138             0.0000000000
     17215       138  CHL1      H26C           -5.0654387834       21.7774706311       -4.0452953381  MEMB      138             0.0000000000
     17216       138  CHL1      C27            -3.3124572501       23.0619829214       -2.4858410784  MEMB      138             0.0000000000
     17217       138  CHL1      H27A           -3.8772346367       22.2829021113       -1.9331624069  MEMB      138             0.0000000000
     17218       138  CHL1      H27B           -2.4128595719       22.5950747124       -2.9410654401  MEMB      138             0.0000000000
     17219       138  CHL1      H27C           -2.9867122667       23.8393207868       -1.7633609417  MEMB      138             0.0000000000
     17220       139  23SM      N              18.9934693937      -19.4871975300      -27.9166590634  MEMB      139             0.0000000000
     17221       139  23SM      C15            19.7826842009      -20.6846661577      -28.3037375003  MEMB      139             0.0000000000
     17222       139  23SM      H15A           20.8427587622      -20.4844235158      -28.2598471655  MEMB      139             0.0000000000
     17223       139  23SM      H15B           19.5325356459      -20.9420903921      -29.3283248113  MEMB      139             0.0000000000
     17224       139  23SM      H15C           19.5104310631      -21.5026581367      -27.6490198769  MEMB      139             0.0000000000
     17225       139  23SM      C14            19.2699387644      -18.4219993867      -28.9061224089  MEMB      139             0.0000000000
     17226       139  23SM      H14A           20.3183395685      -18.1319946529      -28.9155821685  MEMB      139             0.0000000000
     17227       139  23SM      H14B           18.7136710701      -17.5071271128      -28.7212488528  MEMB      139             0.0000000000
     17228       139  23SM      H14C           19.0177570846      -18.7248398652      -29.9166473086  MEMB      139             0.0000000000
     17229       139  23SM      C13            17.5471093921      -19.8607234864      -27.9634904380  MEMB      139             0.0000000000
     17230       139  23SM      H13A           17.3711865669      -20.6185113594      -27.1931990310  MEMB      139             0.0000000000
     17231       139  23SM      H13B           17.2199341834      -20.2055605482      -28.9324232942  MEMB      139             0.0000000000
     17232       139  23SM      H13C           16.9347729657      -19.0193607675      -27.6691875285  MEMB      139             0.0000000000
     17233       139  23SM      C12            19.2884902500      -18.9964604471      -26.5009471945  MEMB      139             0.0000000000
     17234       139  23SM      H12A           18.5773738313      -18.1983949514      -26.2506986461  MEMB      139             0.0000000000
     17235       139  23SM      H12B           20.2632786785      -18.5316348414      -26.4376352403  MEMB      139             0.0000000000
     17236       139  23SM      C11            19.1080215240      -20.0336260569      -25.3645996102  MEMB      139             0.0000000000
     17237       139  23SM      H11A           19.5394683568      -19.6201635831      -24.4198971512  MEMB      139             0.0000000000
     17238       139  23SM      H11B           19.6800089772      -20.9497607559      -25.5996986457  MEMB      139             0.0000000000
     17239       139  23SM      P              16.7940086440      -19.3822238490      -24.4104317794  MEMB      139             0.0000000000
     17240       139  23SM      O13            17.1829075983      -18.0082223887      -24.7945875810  MEMB      139             0.0000000000
     17241       139  23SM      O14            15.3843056542      -19.7560387297      -24.6383852941  MEMB      139             0.0000000000
     17242       139  23SM      O11            17.1506518326      -19.6727858144      -22.8924908582  MEMB      139             0.0000000000
     17243       139  23SM      O12            17.7311610044      -20.3916980258      -25.2068611359  MEMB      139             0.0000000000
     17244       139  23SM      C1S            17.2269314438      -21.0554187075      -22.5234465836  MEMB      139             0.0000000000
     17245       139  23SM      H1S            17.9297365435      -21.6161816541      -23.1823711615  MEMB      139             0.0000000000
     17246       139  23SM      H1T            16.2382151145      -21.5648681161      -22.6237976164  MEMB      139             0.0000000000
     17247       139  23SM      NF             18.9101754257      -22.0515388613      -21.0793453960  MEMB      139             0.0000000000
     17248       139  23SM      HNF            18.7171896666      -22.9780799100      -20.8140124051  MEMB      139             0.0000000000
     17249       139  23SM      C2S            17.7510490485      -21.1644136780      -21.0727239788  MEMB      139             0.0000000000
     17250       139  23SM      H2S            18.0700723439      -20.1545476175      -20.7272735128  MEMB      139             0.0000000000
     17251       139  23SM      C3S            16.5877346946      -21.6566536727      -20.1576386472  MEMB      139             0.0000000000
     17252       139  23SM      H3S            16.3760764994      -22.7250730472      -20.3973385741  MEMB      139             0.0000000000
     17253       139  23SM      O3             15.3736052061      -20.9371721307      -20.3671748803  MEMB      139             0.0000000000
     17254       139  23SM      HO3            15.5763942028      -20.2695920275      -21.0363816796  MEMB      139             0.0000000000
     17255       139  23SM      C4S            17.0070152765      -21.5683336920      -18.6999560991  MEMB      139             0.0000000000
     17256       139  23SM      H4S            17.5666633706      -22.4308391325      -18.3144150472  MEMB      139             0.0000000000
     17257       139  23SM      C5S            16.7259370387      -20.5302735152      -17.8790158849  MEMB      139             0.0000000000
     17258       139  23SM      H5S            16.1285784493      -19.6929170062      -18.2860302819  MEMB      139             0.0000000000
     17259       139  23SM      C6S            17.1047193300      -20.3611553739      -16.4350007418  MEMB      139             0.0000000000
     17260       139  23SM      H6S            16.5139880783      -19.5177985431      -16.0076909172  MEMB      139             0.0000000000
     17261       139  23SM      H6T            18.1671478674      -20.0399402305      -16.3776976537  MEMB      139             0.0000000000
     17262       139  23SM      C7S            16.9290908389      -21.5563622278      -15.4893196990  MEMB      139             0.0000000000
     17263       139  23SM      H7S            17.7450289213      -21.4983589639      -14.7294197139  MEMB      139             0.0000000000
     17264       139  23SM      H7T            17.0329448515      -22.5378307675      -15.9984493774  MEMB      139             0.0000000000
     17265       139  23SM      C8S            15.6086421252      -21.5110895183      -14.7214448015  MEMB      139             0.0000000000
     17266       139  23SM      H8S            14.7924969393      -21.9142010955      -15.3644420460  MEMB      139             0.0000000000
     17267       139  23SM      H8T            15.3263134036      -20.4679629324      -14.4521542975  MEMB      139             0.0000000000
     17268       139  23SM      C9S            15.7357422460      -22.3374888084      -13.4510609864  MEMB      139             0.0000000000
     17269       139  23SM      H9S            16.4253568835      -23.1956879350      -13.6154187415  MEMB      139             0.0000000000
     17270       139  23SM      H9T            14.7404912854      -22.7731906896      -13.2264593160  MEMB      139             0.0000000000
     17271       139  23SM      C10S           16.1922208198      -21.5608049300      -12.2100784556  MEMB      139             0.0000000000
     17272       139  23SM      H10S           15.5605857346      -20.6544058155      -12.0695417784  MEMB      139             0.0000000000
     17273       139  23SM      H10T           17.2528407983      -21.2361870835      -12.2883839167  MEMB      139             0.0000000000
     17274       139  23SM      C11S           15.9868228110      -22.5201377642      -11.0439297456  MEMB      139             0.0000000000
     17275       139  23SM      H11S           16.6208988094      -23.4235041342      -11.1745502846  MEMB      139             0.0000000000
     17276       139  23SM      H11T           14.9587053529      -22.8796965649      -11.1534891487  MEMB      139             0.0000000000
     17277       139  23SM      C12S           16.0916212408      -21.9479406586       -9.6378942222  MEMB      139             0.0000000000
     17278       139  23SM      H12S           15.4021627967      -22.5107386865       -8.9664350040  MEMB      139             0.0000000000
     17279       139  23SM      H12T           15.8004379135      -20.8746357255       -9.6108631051  MEMB      139             0.0000000000
     17280       139  23SM      C13S           17.5003450473      -22.1557824256       -9.1300431140  MEMB      139             0.0000000000
     17281       139  23SM      H13S           18.1266670974      -21.3840181882       -9.6383898771  MEMB      139             0.0000000000
     17282       139  23SM      H13T           17.8746712324      -23.1522711482       -9.4634543093  MEMB      139             0.0000000000
     17283       139  23SM      C14S           17.6422592422      -22.0655040011       -7.6079531251  MEMB      139             0.0000000000
     17284       139  23SM      H14S           17.1604394216      -21.1622653422       -7.1838338899  MEMB      139             0.0000000000
     17285       139  23SM      H14T           18.7155185543      -21.9357673193       -7.4397621973  MEMB      139             0.0000000000
     17286       139  23SM      C15S           17.3748445987      -23.3541169480       -6.8101323180  MEMB      139             0.0000000000
     17287       139  23SM      H15S           17.1243443933      -24.1656638526       -7.5229746854  MEMB      139             0.0000000000
     17288       139  23SM      H15T           16.5125872698      -23.1836340367       -6.1281488197  MEMB      139             0.0000000000
     17289       139  23SM      C16S           18.6292141988      -23.7393600658       -5.9916302489  MEMB      139             0.0000000000
     17290       139  23SM      H16S           18.8436936390      -22.8462808684       -5.3841443180  MEMB      139             0.0000000000
     17291       139  23SM      H16T           19.4971216353      -23.8726708108       -6.6740107500  MEMB      139             0.0000000000
     17292       139  23SM      C17S           18.5479347582      -24.9306223128       -5.0223096350  MEMB      139             0.0000000000
     17293       139  23SM      H17S           19.2141162971      -25.7421753436       -5.3929307784  MEMB      139             0.0000000000
     17294       139  23SM      H17T           17.5194040992      -25.3337366245       -5.0037771032  MEMB      139             0.0000000000
     17295       139  23SM      C18S           18.9138790031      -24.5943690829       -3.5711166905  MEMB      139             0.0000000000
     17296       139  23SM      H18S           18.6453066815      -25.4412708442       -2.9023168289  MEMB      139             0.0000000000
     17297       139  23SM      H18T           18.3551222533      -23.6959899626       -3.2326248268  MEMB      139             0.0000000000
     17298       139  23SM      H18U           19.9920150926      -24.3766890112       -3.4467240760  MEMB      139             0.0000000000
     17299       139  23SM      C1F            20.0753377416      -21.7065887157      -21.6512404570  MEMB      139             0.0000000000
     17300       139  23SM      OF             20.2189144946      -20.6286488912      -22.1954757864  MEMB      139             0.0000000000
     17301       139  23SM      C2F            21.1937462664      -22.7084709699      -21.6969383657  MEMB      139             0.0000000000
     17302       139  23SM      H2F            21.8233538943      -22.4531941582      -22.5710879065  MEMB      139             0.0000000000
     17303       139  23SM      H2G            20.8052053399      -23.7271950345      -21.8709520995  MEMB      139             0.0000000000
     17304       139  23SM      C3F            22.1155616279      -22.6109497681      -20.4648079796  MEMB      139             0.0000000000
     17305       139  23SM      H3F            22.5568245466      -21.5836461803      -20.4257096451  MEMB      139             0.0000000000
     17306       139  23SM      H3G            22.9737864576      -23.3197977589      -20.5563615676  MEMB      139             0.0000000000
     17307       139  23SM      C4F            21.3929616902      -22.8348281387      -19.1406600915  MEMB      139             0.0000000000
     17308       139  23SM      H4F            21.4263462778      -23.8823220821      -18.7986954002  MEMB      139             0.0000000000
     17309       139  23SM      H4G            20.3276146319      -22.5464032183      -19.1943061765  MEMB      139             0.0000000000
     17310       139  23SM      C5F            21.9340761363      -21.9922161843      -18.0083494290  MEMB      139             0.0000000000
     17311       139  23SM      H5F            21.7375357446      -20.9160065406      -18.2187618074  MEMB      139             0.0000000000
     17312       139  23SM      H5G            23.0361653597      -22.1230247521      -17.9337704333  MEMB      139             0.0000000000
     17313       139  23SM      C6F            21.2313606267      -22.4729772923      -16.7489411758  MEMB      139             0.0000000000
     17314       139  23SM      H6F            21.5175831297      -23.5410039622      -16.5934154351  MEMB      139             0.0000000000
     17315       139  23SM      H6G            20.1283865279      -22.4232118817      -16.8939674280  MEMB      139             0.0000000000
     17316       139  23SM      C7F            21.5839536129      -21.6840377125      -15.5081736685  MEMB      139             0.0000000000
     17317       139  23SM      H7F            21.1038209753      -20.6788769464      -15.5513370587  MEMB      139             0.0000000000
     17318       139  23SM      H7G            22.6886463815      -21.5270657782      -15.4658865317  MEMB      139             0.0000000000
     17319       139  23SM      C8F            21.1292949560      -22.4305443956      -14.2528499298  MEMB      139             0.0000000000
     17320       139  23SM      H8F            21.4702673134      -23.4896829677      -14.2896724922  MEMB      139             0.0000000000
     17321       139  23SM      H8G            20.0156448195      -22.4287334926      -14.2071240495  MEMB      139             0.0000000000
     17322       139  23SM      C9F            21.7250577121      -21.7171541627      -13.0456531737  MEMB      139             0.0000000000
     17323       139  23SM      H9F            21.3722718132      -20.6608144193      -13.1040479510  MEMB      139             0.0000000000
     17324       139  23SM      H9G            22.8345803238      -21.7080559848      -13.1401264666  MEMB      139             0.0000000000
     17325       139  23SM      C10F           21.3306042867      -22.2691935751      -11.6796807218  MEMB      139             0.0000000000
     17326       139  23SM      H10F           22.1719347858      -22.8713886807      -11.2636896050  MEMB      139             0.0000000000
     17327       139  23SM      H10G           20.4458389543      -22.9403423724      -11.7556591267  MEMB      139             0.0000000000
     17328       139  23SM      C11F           20.9900528087      -21.1151401654      -10.7271459630  MEMB      139             0.0000000000
     17329       139  23SM      H11F           20.0658132635      -20.6063681742      -11.0831614926  MEMB      139             0.0000000000
     17330       139  23SM      H11G           21.8142817729      -20.3688875521      -10.7313654939  MEMB      139             0.0000000000
     17331       139  23SM      C12F           20.7943128732      -21.6413348318       -9.3159379561  MEMB      139             0.0000000000
     17332       139  23SM      H12F           21.6458269287      -22.2816915777       -9.0343506955  MEMB      139             0.0000000000
     17333       139  23SM      H12G           19.9559082607      -22.3633230593       -9.3420100480  MEMB      139             0.0000000000
     17334       139  23SM      C13F           20.5281524049      -20.5958502712       -8.2151534510  MEMB      139             0.0000000000
     17335       139  23SM      H13F           20.4613621483      -21.2669935246       -7.3373443223  MEMB      139             0.0000000000
     17336       139  23SM      H13G           19.5513577092      -20.0875822462       -8.3508299231  MEMB      139             0.0000000000
     17337       139  23SM      C14F           21.5882614801      -19.5663221007       -7.8315750829  MEMB      139             0.0000000000
     17338       139  23SM      H14F           21.6558528037      -18.7544229400       -8.5811588869  MEMB      139             0.0000000000
     17339       139  23SM      H14G           22.5533375495      -20.0715527933       -7.7995392274  MEMB      139             0.0000000000
     17340       139  23SM      C15F           21.4935914298      -19.0553364253       -6.3839049407  MEMB      139             0.0000000000
     17341       139  23SM      H15F           20.7669907213      -18.2212761595       -6.2969719897  MEMB      139             0.0000000000
     17342       139  23SM      H15G           22.4979356407      -18.6652187052       -6.1307828714  MEMB      139             0.0000000000
     17343       139  23SM      C16F           21.2167449998      -20.1494637740       -5.3404796619  MEMB      139             0.0000000000
     17344       139  23SM      H16F           21.8704772337      -20.0135634742       -4.4670935142  MEMB      139             0.0000000000
     17345       139  23SM      H16G           21.5274174998      -21.1500637469       -5.7046797701  MEMB      139             0.0000000000
     17346       139  23SM      C17F           19.7532526361      -20.1363344061       -4.8979205208  MEMB      139             0.0000000000
     17347       139  23SM      H17F           19.1086665465      -20.3670699730       -5.7740478360  MEMB      139             0.0000000000
     17348       139  23SM      H17G           19.4749951682      -19.1123003255       -4.5624951787  MEMB      139             0.0000000000
     17349       139  23SM      C18F           19.4682182142      -21.1371898215       -3.7761876257  MEMB      139             0.0000000000
     17350       139  23SM      H18F           20.0557334294      -22.0666489736       -3.9443270112  MEMB      139             0.0000000000
     17351       139  23SM      H18G           18.3811752138      -21.3825975301       -3.8027395060  MEMB      139             0.0000000000
     17352       139  23SM      C19F           19.8072596557      -20.5877582107       -2.4051052058  MEMB      139             0.0000000000
     17353       139  23SM      H19F           19.6574099081      -19.4840861589       -2.4483522082  MEMB      139             0.0000000000
     17354       139  23SM      H19G           20.8712503618      -20.8009740755       -2.1570940228  MEMB      139             0.0000000000
     17355       139  23SM      C20F           18.9086152395      -21.0558042448       -1.2756265179  MEMB      139             0.0000000000
     17356       139  23SM      H20F           19.1038688478      -22.1287448073       -1.0551454519  MEMB      139             0.0000000000
     17357       139  23SM      H20G           17.8421073754      -20.9465138404       -1.5762336299  MEMB      139             0.0000000000
     17358       139  23SM      C21F           19.1991322856      -20.1526849624       -0.0752977968  MEMB      139             0.0000000000
     17359       139  23SM      H21F           19.0789437627      -19.0875966461       -0.3778169885  MEMB      139             0.0000000000
     17360       139  23SM      H21G           20.2606416250      -20.2992849172        0.2280512889  MEMB      139             0.0000000000
     17361       139  23SM      C22F           18.2830371089      -20.4041866495        1.1011749104  MEMB      139             0.0000000000
     17362       139  23SM      H22F           17.2673147601      -20.0279601259        0.8429427929  MEMB      139             0.0000000000
     17363       139  23SM      H22G           18.6547362616      -19.8379774947        1.9882834685  MEMB      139             0.0000000000
     17364       139  23SM      C23F           18.1724205636      -21.8699042515        1.4495984444  MEMB      139             0.0000000000
     17365       139  23SM      H23F           19.1644425409      -22.3578937353        1.4482009476  MEMB      139             0.0000000000
     17366       139  23SM      H23G           17.4990565448      -22.4098507120        0.7492364247  MEMB      139             0.0000000000
     17367       139  23SM      H23H           17.7613304588      -21.9525629959        2.4623527500  MEMB      139             0.0000000000
     17368       140  DOPC      N              26.1493848924       -5.8014658735      -20.9983337748  MEMB      140             0.0000000000
     17369       140  DOPC      C12            25.0293312760       -5.6393985421      -19.9903889697  MEMB      140             0.0000000000
     17370       140  DOPC      H12A           24.7502879034       -6.6264171200      -19.6087911491  MEMB      140             0.0000000000
     17371       140  DOPC      H12B           24.1659427309       -5.2455316216      -20.5117591167  MEMB      140             0.0000000000
     17372       140  DOPC      C13            26.9823821704       -6.9833201649      -20.6073669387  MEMB      140             0.0000000000
     17373       140  DOPC      H13A           27.2647779344       -6.8918273901      -19.5509471181  MEMB      140             0.0000000000
     17374       140  DOPC      H13B           26.4320557855       -7.9119699212      -20.6917122750  MEMB      140             0.0000000000
     17375       140  DOPC      H13C           27.8895290537       -7.0479048818      -21.1870656042  MEMB      140             0.0000000000
     17376       140  DOPC      C14            27.0122904863       -4.6029207920      -20.9281458621  MEMB      140             0.0000000000
     17377       140  DOPC      H14A           27.9137453781       -4.7104128697      -21.5087278929  MEMB      140             0.0000000000
     17378       140  DOPC      H14B           26.4598074868       -3.7270769036      -21.2381404756  MEMB      140             0.0000000000
     17379       140  DOPC      H14C           27.2640129154       -4.4560870939      -19.8706951011  MEMB      140             0.0000000000
     17380       140  DOPC      C15            25.5968709922       -5.9189289321      -22.3850683701  MEMB      140             0.0000000000
     17381       140  DOPC      H15A           25.0213304579       -6.8305720749      -22.4927196369  MEMB      140             0.0000000000
     17382       140  DOPC      H15B           26.3983287873       -5.8933643397      -23.1043880140  MEMB      140             0.0000000000
     17383       140  DOPC      H15C           24.9371651795       -5.0710334577      -22.5889021478  MEMB      140             0.0000000000
     17384       140  DOPC      C11            25.2496761891       -4.7604153136      -18.7298933195  MEMB      140             0.0000000000
     17385       140  DOPC      H11A           25.4139744732       -3.7109839141      -19.0493159555  MEMB      140             0.0000000000
     17386       140  DOPC      H11B           24.3055068435       -4.7482648400      -18.1289560950  MEMB      140             0.0000000000
     17387       140  DOPC      P              26.1790285436       -6.5772974401      -17.1445921759  MEMB      140             0.0000000000
     17388       140  DOPC      O13            27.5025872901       -7.2331325647      -17.0652152717  MEMB      140             0.0000000000
     17389       140  DOPC      O14            25.0878401908       -7.3481966301      -17.7818668594  MEMB      140             0.0000000000
     17390       140  DOPC      O12            26.3577165234       -5.2106218343      -17.9464404098  MEMB      140             0.0000000000
     17391       140  DOPC      O11            25.7020433111       -6.0972614416      -15.7322290966  MEMB      140             0.0000000000
     17392       140  DOPC      C1             26.5257378851       -5.6668801693      -14.6615763206  MEMB      140             0.0000000000
     17393       140  DOPC      HA             26.9436249178       -4.6627395161      -14.8609904036  MEMB      140             0.0000000000
     17394       140  DOPC      HB             27.3849729161       -6.3700975625      -14.5319338672  MEMB      140             0.0000000000
     17395       140  DOPC      C2             25.6588735155       -5.6827251260      -13.3745281469  MEMB      140             0.0000000000
     17396       140  DOPC      HS             26.2499130391       -5.3121304935      -12.5109949496  MEMB      140             0.0000000000
     17397       140  DOPC      O21            25.4124522847       -7.1115022343      -13.2587459792  MEMB      140             0.0000000000
     17398       140  DOPC      C21            26.3514391690       -7.9374300877      -12.7377150758  MEMB      140             0.0000000000
     17399       140  DOPC      O22            27.3990692359       -7.5818731591      -12.2370590646  MEMB      140             0.0000000000
     17400       140  DOPC      C22            25.8272761623       -9.4099688772      -12.8588528448  MEMB      140             0.0000000000
     17401       140  DOPC      H2R            25.8306541165       -9.5858028081      -13.9578582387  MEMB      140             0.0000000000
     17402       140  DOPC      H2S            24.7800152676       -9.3944008039      -12.5320711101  MEMB      140             0.0000000000
     17403       140  DOPC      C3             24.3211137425       -4.6916150894      -13.5592493457  MEMB      140             0.0000000000
     17404       140  DOPC      HX             24.1104738171       -4.7079695724      -14.6472443297  MEMB      140             0.0000000000
     17405       140  DOPC      HY             24.7368386198       -3.6824141783      -13.3523268513  MEMB      140             0.0000000000
     17406       140  DOPC      O31            23.0649147525       -4.8320633873      -12.7658870438  MEMB      140             0.0000000000
     17407       140  DOPC      C31            21.7225945042       -4.4830928321      -13.1059891069  MEMB      140             0.0000000000
     17408       140  DOPC      O32            21.4947747681       -3.8892939899      -14.1353261111  MEMB      140             0.0000000000
     17409       140  DOPC      C32            20.4542170680       -4.9275447690      -12.1404717083  MEMB      140             0.0000000000
     17410       140  DOPC      H2X            20.6921203267       -4.5636655638      -11.1510503359  MEMB      140             0.0000000000
     17411       140  DOPC      H2Y            19.6226302336       -4.2725285249      -12.4792193978  MEMB      140             0.0000000000
     17412       140  DOPC      C23            26.4899202407      -10.6778685441      -12.1839549020  MEMB      140             0.0000000000
     17413       140  DOPC      H3R            27.5698684111      -10.7140662108      -12.4203803123  MEMB      140             0.0000000000
     17414       140  DOPC      H3S            26.0208867520      -11.5657699405      -12.6819359802  MEMB      140             0.0000000000
     17415       140  DOPC      C24            26.2929872268      -10.9329334146      -10.6627489488  MEMB      140             0.0000000000
     17416       140  DOPC      H4R            26.8033743382      -11.8907215584      -10.3977255708  MEMB      140             0.0000000000
     17417       140  DOPC      H4S            25.2167012326      -11.0746034060      -10.4184762284  MEMB      140             0.0000000000
     17418       140  DOPC      C25            26.9081255786       -9.8098087549       -9.8202179450  MEMB      140             0.0000000000
     17419       140  DOPC      H5R            26.4425512745       -8.8721527127      -10.1886826978  MEMB      140             0.0000000000
     17420       140  DOPC      H5S            28.0022011134       -9.7652203387      -10.0155730048  MEMB      140             0.0000000000
     17421       140  DOPC      C26            26.6954214169       -9.8221788624       -8.2990711391  MEMB      140             0.0000000000
     17422       140  DOPC      H6R            27.1560089110      -10.7174171785       -7.8229943895  MEMB      140             0.0000000000
     17423       140  DOPC      H6S            25.6017579523       -9.8292976292       -8.1187456747  MEMB      140             0.0000000000
     17424       140  DOPC      C27            27.2871398312       -8.5522634384       -7.6603334883  MEMB      140             0.0000000000
     17425       140  DOPC      H7R            28.2867920891       -8.3800355744       -8.1196013879  MEMB      140             0.0000000000
     17426       140  DOPC      H7S            27.4539663289       -8.6821286145       -6.5720997993  MEMB      140             0.0000000000
     17427       140  DOPC      C28            26.3864846294       -7.3181738841       -7.8376165104  MEMB      140             0.0000000000
     17428       140  DOPC      H8R            25.4986238644       -7.4224045908       -7.1701227859  MEMB      140             0.0000000000
     17429       140  DOPC      H8S            26.0003141165       -7.2970446739       -8.8793926745  MEMB      140             0.0000000000
     17430       140  DOPC      C29            27.1869794627       -6.0812446727       -7.5107162766  MEMB      140             0.0000000000
     17431       140  DOPC      H9R            28.0170574770       -6.2466006673       -6.8097103437  MEMB      140             0.0000000000
     17432       140  DOPC      C210           26.9630739216       -4.8370735296       -7.9700172051  MEMB      140             0.0000000000
     17433       140  DOPC      H10R           27.6237661432       -4.0159716055       -7.6580388580  MEMB      140             0.0000000000
     17434       140  DOPC      C211           25.8525491521       -4.4471365350       -8.9038787198  MEMB      140             0.0000000000
     17435       140  DOPC      H11R           25.5741013575       -5.3185504254       -9.5243254846  MEMB      140             0.0000000000
     17436       140  DOPC      H11S           26.2036901884       -3.6725082544       -9.6215966765  MEMB      140             0.0000000000
     17437       140  DOPC      C212           24.6212932459       -3.9061978327       -8.1339819953  MEMB      140             0.0000000000
     17438       140  DOPC      H12R           23.7719869865       -3.8143043088       -8.8473920553  MEMB      140             0.0000000000
     17439       140  DOPC      H12S           24.8608011969       -2.8771674927       -7.7837415273  MEMB      140             0.0000000000
     17440       140  DOPC      C213           24.1783756291       -4.7469401218       -6.9032084516  MEMB      140             0.0000000000
     17441       140  DOPC      H13R           25.0101566380       -4.7891277681       -6.1680695091  MEMB      140             0.0000000000
     17442       140  DOPC      H13S           23.9689626594       -5.7855822106       -7.2276384964  MEMB      140             0.0000000000
     17443       140  DOPC      C214           22.9428569847       -4.1856183665       -6.1812594757  MEMB      140             0.0000000000
     17444       140  DOPC      H14R           22.0545015651       -4.3702821893       -6.8072956623  MEMB      140             0.0000000000
     17445       140  DOPC      H14S           23.0634315795       -3.0858113907       -6.0714805936  MEMB      140             0.0000000000
     17446       140  DOPC      C215           22.5535296022       -4.7954235343       -4.8241859216  MEMB      140             0.0000000000
     17447       140  DOPC      H15R           23.4417127484       -5.0978144461       -4.2361770334  MEMB      140             0.0000000000
     17448       140  DOPC      H15S           21.9290327855       -5.6923037571       -5.0202313222  MEMB      140             0.0000000000
     17449       140  DOPC      C216           21.6374129635       -3.8295751207       -4.0641584471  MEMB      140             0.0000000000
     17450       140  DOPC      H16R           20.6478022478       -3.8804762890       -4.5703517993  MEMB      140             0.0000000000
     17451       140  DOPC      H16S           22.0367562790       -2.7968943292       -4.1457010533  MEMB      140             0.0000000000
     17452       140  DOPC      C217           21.3178201068       -4.1486653268       -2.6080462222  MEMB      140             0.0000000000
     17453       140  DOPC      H17R           20.8155188323       -5.1349414731       -2.6139469433  MEMB      140             0.0000000000
     17454       140  DOPC      H17S           20.5642461445       -3.4119074376       -2.2437129509  MEMB      140             0.0000000000
     17455       140  DOPC      C218           22.5219234179       -4.1334316453       -1.6739187258  MEMB      140             0.0000000000
     17456       140  DOPC      H18R           22.9798131423       -3.1206476162       -1.6584265337  MEMB      140             0.0000000000
     17457       140  DOPC      H18S           23.2873349928       -4.8631396807       -2.0127301538  MEMB      140             0.0000000000
     17458       140  DOPC      H18T           22.2140517859       -4.4009078268       -0.6414662357  MEMB      140             0.0000000000
     17459       140  DOPC      C33            19.8378710179       -6.4378384572      -12.0744394051  MEMB      140             0.0000000000
     17460       140  DOPC      H3X            20.7362975064       -6.9622033267      -11.8407716390  MEMB      140             0.0000000000
     17461       140  DOPC      H3Y            19.4749242286       -6.7797137074      -13.0528206940  MEMB      140             0.0000000000
     17462       140  DOPC      C34            19.0996838354       -7.2833577183      -10.9413647928  MEMB      140             0.0000000000
     17463       140  DOPC      H4X            18.0258924095       -7.3251512529      -11.2318797535  MEMB      140             0.0000000000
     17464       140  DOPC      H4Y            19.0608777145       -6.7876654539       -9.9708711221  MEMB      140             0.0000000000
     17465       140  DOPC      C35            19.5900059997       -8.8211028993      -10.7867378757  MEMB      140             0.0000000000
     17466       140  DOPC      H5X            19.9207613318       -9.1516737715      -11.7890300157  MEMB      140             0.0000000000
     17467       140  DOPC      H5Y            18.6713503584       -9.3838542276      -10.5453478996  MEMB      140             0.0000000000
     17468       140  DOPC      C36            20.6873460749       -9.2420061358       -9.7032867865  MEMB      140             0.0000000000
     17469       140  DOPC      H6X            21.6780577738       -8.9706499879      -10.0816297888  MEMB      140             0.0000000000
     17470       140  DOPC      H6Y            20.3908559115       -8.6183502831       -8.8472168590  MEMB      140             0.0000000000
     17471       140  DOPC      C37            21.0885258703      -10.6341172830       -9.0996386327  MEMB      140             0.0000000000
     17472       140  DOPC      H7X            20.2867020631      -10.8858125138       -8.3792779256  MEMB      140             0.0000000000
     17473       140  DOPC      H7Y            21.1266697541      -11.4071160887       -9.8927463384  MEMB      140             0.0000000000
     17474       140  DOPC      C38            22.4631334863      -10.7525778629       -8.3332740186  MEMB      140             0.0000000000
     17475       140  DOPC      H8X            22.9975025666       -9.7768122953       -8.3256841935  MEMB      140             0.0000000000
     17476       140  DOPC      H8Y            23.1135134323      -11.4305960877       -8.9284189700  MEMB      140             0.0000000000
     17477       140  DOPC      C39            22.3095590546      -11.3474214704       -6.9371108573  MEMB      140             0.0000000000
     17478       140  DOPC      H9X            21.2569061259      -11.4486591785       -6.6420766061  MEMB      140             0.0000000000
     17479       140  DOPC      C310           23.2518237617      -11.7721816144       -6.0561244031  MEMB      140             0.0000000000
     17480       140  DOPC      H10X           22.9349729619      -12.2229663683       -5.0990577797  MEMB      140             0.0000000000
     17481       140  DOPC      C311           24.7371497948      -11.7339119549       -6.3061144163  MEMB      140             0.0000000000
     17482       140  DOPC      H11X           24.9651068870      -10.6817173234       -6.5265122799  MEMB      140             0.0000000000
     17483       140  DOPC      H11Y           24.9430961675      -12.3304162628       -7.2224569176  MEMB      140             0.0000000000
     17484       140  DOPC      C312           25.8149570198      -12.1588694757       -5.2628859657  MEMB      140             0.0000000000
     17485       140  DOPC      H12X           26.8023547450      -12.0763350882       -5.7780323248  MEMB      140             0.0000000000
     17486       140  DOPC      H12Y           25.7391251671      -13.2182440982       -4.9737305267  MEMB      140             0.0000000000
     17487       140  DOPC      C313           25.8979839167      -11.2725644808       -4.0142729357  MEMB      140             0.0000000000
     17488       140  DOPC      H13X           24.9227293808      -11.2321351277       -3.4847423213  MEMB      140             0.0000000000
     17489       140  DOPC      H13Y           26.6511407555      -11.7018921625       -3.3117410033  MEMB      140             0.0000000000
     17490       140  DOPC      C314           26.3620707152       -9.8811793998       -4.4315429179  MEMB      140             0.0000000000
     17491       140  DOPC      H14X           27.2398384349      -10.0334809898       -5.0998885003  MEMB      140             0.0000000000
     17492       140  DOPC      H14Y           25.5637588192       -9.3659127159       -5.0111352774  MEMB      140             0.0000000000
     17493       140  DOPC      C315           26.8218121459       -8.9734689133       -3.3025531335  MEMB      140             0.0000000000
     17494       140  DOPC      H15X           27.3707814087       -8.1442227533       -3.8062947349  MEMB      140             0.0000000000
     17495       140  DOPC      H15Y           27.5391530714       -9.5008964966       -2.6373047328  MEMB      140             0.0000000000
     17496       140  DOPC      C316           25.6596388789       -8.3981975279       -2.4927001747  MEMB      140             0.0000000000
     17497       140  DOPC      H16X           24.9448530000       -7.9040776967       -3.1907908831  MEMB      140             0.0000000000
     17498       140  DOPC      H16Y           25.1112524229       -9.2204332122       -1.9805712222  MEMB      140             0.0000000000
     17499       140  DOPC      C317           26.1333513536       -7.3664918391       -1.4655382980  MEMB      140             0.0000000000
     17500       140  DOPC      H17X           25.2326146854       -6.8568191905       -1.0549257678  MEMB      140             0.0000000000
     17501       140  DOPC      H17Y           26.6231468890       -7.9059150739       -0.6225756313  MEMB      140             0.0000000000
     17502       140  DOPC      C318           27.1144745899       -6.3330545544       -2.0386579707  MEMB      140             0.0000000000
     17503       140  DOPC      H18X           28.0898318271       -6.8137248748       -2.2713019486  MEMB      140             0.0000000000
     17504       140  DOPC      H18Y           26.7038477154       -5.8868418884       -2.9700664381  MEMB      140             0.0000000000
     17505       140  DOPC      H18Z           27.3228448894       -5.5145433921       -1.3250766126  MEMB      140             0.0000000000
     17506       141  23SM      N              27.1988202047        5.6092171915      -26.5366081957  MEMB      141             0.0000000000
     17507       141  23SM      C15            27.9360509668        4.3315849527      -26.7458646905  MEMB      141             0.0000000000
     17508       141  23SM      H15A           29.0113541583        4.5013009446      -26.7582689120  MEMB      141             0.0000000000
     17509       141  23SM      H15B           27.6551350188        3.8809727190      -27.6726300247  MEMB      141             0.0000000000
     17510       141  23SM      H15C           27.7359688005        3.6494028821      -25.9190225537  MEMB      141             0.0000000000
     17511       141  23SM      C14            27.6283294669        6.0909778686      -25.1780539287  MEMB      141             0.0000000000
     17512       141  23SM      H14A           27.1163594584        7.0241597949      -24.9758085608  MEMB      141             0.0000000000
     17513       141  23SM      H14B           28.6989716184        6.2172645991      -25.0851569543  MEMB      141             0.0000000000
     17514       141  23SM      H14C           27.3126101171        5.4048923870      -24.3925794016  MEMB      141             0.0000000000
     17515       141  23SM      C13            27.5549435852        6.6555970844      -27.5449933433  MEMB      141             0.0000000000
     17516       141  23SM      H13A           27.1403479242        7.6192713426      -27.2200377764  MEMB      141             0.0000000000
     17517       141  23SM      H13B           27.1064575428        6.4382834365      -28.5091105472  MEMB      141             0.0000000000
     17518       141  23SM      H13C           28.6241133999        6.7695706377      -27.6466613928  MEMB      141             0.0000000000
     17519       141  23SM      C12            25.6858204180        5.3891318851      -26.5495049556  MEMB      141             0.0000000000
     17520       141  23SM      H12A           25.4347776080        4.7922343572      -25.6766700078  MEMB      141             0.0000000000
     17521       141  23SM      H12B           25.3914966098        4.8577639544      -27.4437611275  MEMB      141             0.0000000000
     17522       141  23SM      C11            24.7638643382        6.6297966481      -26.5182178303  MEMB      141             0.0000000000
     17523       141  23SM      H11A           23.7090250683        6.2835155298      -26.4209495037  MEMB      141             0.0000000000
     17524       141  23SM      H11B           24.8411343347        7.1676317046      -27.4948309781  MEMB      141             0.0000000000
     17525       141  23SM      P              25.0134111517        9.0069818898      -25.4693836157  MEMB      141             0.0000000000
     17526       141  23SM      O13            26.0090166307        9.4560454119      -26.4770342365  MEMB      141             0.0000000000
     17527       141  23SM      O14            23.6150106816        9.4516842218      -25.6806938850  MEMB      141             0.0000000000
     17528       141  23SM      O11            25.4410906980        9.4368025867      -23.9893668471  MEMB      141             0.0000000000
     17529       141  23SM      O12            25.0829575807        7.4387697786      -25.4054431874  MEMB      141             0.0000000000
     17530       141  23SM      C1S            26.0382863261        8.4599353407      -23.1208198424  MEMB      141             0.0000000000
     17531       141  23SM      H1S            27.1208718240        8.4116840731      -23.3633240083  MEMB      141             0.0000000000
     17532       141  23SM      H1T            25.6274608363        7.4286508479      -23.2420258025  MEMB      141             0.0000000000
     17533       141  23SM      NF             27.0986602467        8.5778809092      -20.8953371652  MEMB      141             0.0000000000
     17534       141  23SM      HNF            27.0633709673        8.0124130552      -20.0797749338  MEMB      141             0.0000000000
     17535       141  23SM      C2S            25.8593654908        8.8031946057      -21.6082292634  MEMB      141             0.0000000000
     17536       141  23SM      H2S            25.6256765629        9.8857978528      -21.5164546823  MEMB      141             0.0000000000
     17537       141  23SM      C3S            24.7145389212        7.9865370004      -20.9554936638  MEMB      141             0.0000000000
     17538       141  23SM      H3S            24.9187909536        6.9009853662      -21.1099688795  MEMB      141             0.0000000000
     17539       141  23SM      O3             23.4247988501        8.2606684709      -21.4833082650  MEMB      141             0.0000000000
     17540       141  23SM      HO3            23.5571483955        8.6311425210      -22.3618348310  MEMB      141             0.0000000000
     17541       141  23SM      C4S            24.6613794455        8.2753814709      -19.4797826246  MEMB      141             0.0000000000
     17542       141  23SM      H4S            24.2030363148        9.2405849600      -19.2216584510  MEMB      141             0.0000000000
     17543       141  23SM      C5S            25.1097651274        7.4499630387      -18.5122667856  MEMB      141             0.0000000000
     17544       141  23SM      H5S            25.5489687715        6.4769679745      -18.7906488785  MEMB      141             0.0000000000
     17545       141  23SM      C6S            25.0620121014        7.7183219625      -17.0346704310  MEMB      141             0.0000000000
     17546       141  23SM      H6S            26.0877952113        7.7263024712      -16.5998222760  MEMB      141             0.0000000000
     17547       141  23SM      H6T            24.5296586907        6.8676547993      -16.5589588012  MEMB      141             0.0000000000
     17548       141  23SM      C7S            24.3664617960        9.0299433389      -16.6200387903  MEMB      141             0.0000000000
     17549       141  23SM      H7S            23.3441181117        9.0790850547      -17.0547018369  MEMB      141             0.0000000000
     17550       141  23SM      H7T            24.9432327680        9.9067931604      -16.9961561402  MEMB      141             0.0000000000
     17551       141  23SM      C8S            24.2217579244        9.1675656043      -15.1025281716  MEMB      141             0.0000000000
     17552       141  23SM      H8S            23.6466559957       10.0963410258      -14.8753651257  MEMB      141             0.0000000000
     17553       141  23SM      H8T            25.2315946760        9.2807746230      -14.6523543413  MEMB      141             0.0000000000
     17554       141  23SM      C9S            23.5301923510        7.9611625111      -14.4483933724  MEMB      141             0.0000000000
     17555       141  23SM      H9S            24.2426718639        7.1039390722      -14.4145132030  MEMB      141             0.0000000000
     17556       141  23SM      H9T            22.6562436619        7.6566611526      -15.0605882448  MEMB      141             0.0000000000
     17557       141  23SM      C10S           23.0763657776        8.2605869874      -13.0218231856  MEMB      141             0.0000000000
     17558       141  23SM      H10S           22.5561559050        7.3662936219      -12.6133009922  MEMB      141             0.0000000000
     17559       141  23SM      H10T           22.3513781548        9.1057780764      -13.0316212141  MEMB      141             0.0000000000
     17560       141  23SM      C11S           24.2721742689        8.6283059991      -12.1405400488  MEMB      141             0.0000000000
     17561       141  23SM      H11S           24.7113966093        9.5878155285      -12.4989919707  MEMB      141             0.0000000000
     17562       141  23SM      H11T           25.0397189527        7.8367978291      -12.2311173908  MEMB      141             0.0000000000
     17563       141  23SM      C12S           23.9033330263        8.7798152650      -10.6740062521  MEMB      141             0.0000000000
     17564       141  23SM      H12S           22.9626868747        9.3622957914      -10.6429919936  MEMB      141             0.0000000000
     17565       141  23SM      H12T           24.7077602846        9.3160830757      -10.1215564290  MEMB      141             0.0000000000
     17566       141  23SM      C13S           23.5722094367        7.4768116219       -9.9758204242  MEMB      141             0.0000000000
     17567       141  23SM      H13S           24.4037504549        6.7461540212      -10.0592447930  MEMB      141             0.0000000000
     17568       141  23SM      H13T           22.6745940769        7.0596244823      -10.4856907642  MEMB      141             0.0000000000
     17569       141  23SM      C14S           23.1888544054        7.7071637990       -8.5195206569  MEMB      141             0.0000000000
     17570       141  23SM      H14S           22.7279866941        6.7748539133       -8.1767136362  MEMB      141             0.0000000000
     17571       141  23SM      H14T           22.4359883848        8.5191317660       -8.4271491822  MEMB      141             0.0000000000
     17572       141  23SM      C15S           24.3502503453        7.9476294862       -7.5693290683  MEMB      141             0.0000000000
     17573       141  23SM      H15S           24.8059105676        8.9386980646       -7.7666673313  MEMB      141             0.0000000000
     17574       141  23SM      H15T           25.1179516750        7.1588272185       -7.7365506788  MEMB      141             0.0000000000
     17575       141  23SM      C16S           23.8950638580        7.8377379286       -6.1141030362  MEMB      141             0.0000000000
     17576       141  23SM      H16S           23.4213964984        6.8353679961       -5.9964105782  MEMB      141             0.0000000000
     17577       141  23SM      H16T           23.1952389181        8.6527828510       -5.8569801379  MEMB      141             0.0000000000
     17578       141  23SM      C17S           25.0430745319        7.9119673266       -5.1445983345  MEMB      141             0.0000000000
     17579       141  23SM      H17S           25.4869351315        8.9334034977       -5.1640917533  MEMB      141             0.0000000000
     17580       141  23SM      H17T           25.7365586172        7.1947663573       -5.6219142954  MEMB      141             0.0000000000
     17581       141  23SM      C18S           24.8111161977        7.4489849673       -3.7044182568  MEMB      141             0.0000000000
     17582       141  23SM      H18S           24.4149241710        6.4097674248       -3.6892540816  MEMB      141             0.0000000000
     17583       141  23SM      H18T           24.1260101127        8.1174241096       -3.1551494227  MEMB      141             0.0000000000
     17584       141  23SM      H18U           25.7580931642        7.4699672402       -3.1335903357  MEMB      141             0.0000000000
     17585       141  23SM      C1F            28.1951180699        9.2474051437      -21.1797212069  MEMB      141             0.0000000000
     17586       141  23SM      OF             28.1579472096       10.3051237833      -21.7960982449  MEMB      141             0.0000000000
     17587       141  23SM      C2F            29.4564270086        8.6929325809      -20.6350161666  MEMB      141             0.0000000000
     17588       141  23SM      H2F            30.2302775494        8.6952559103      -21.4355380815  MEMB      141             0.0000000000
     17589       141  23SM      H2G            29.3382005710        7.6595428683      -20.2471172065  MEMB      141             0.0000000000
     17590       141  23SM      C3F            29.8295529842        9.6535782549      -19.5146939273  MEMB      141             0.0000000000
     17591       141  23SM      H3F            29.8258954593       10.6578106608      -19.9599452224  MEMB      141             0.0000000000
     17592       141  23SM      H3G            30.8599457537        9.4991116133      -19.2096542978  MEMB      141             0.0000000000
     17593       141  23SM      C4F            28.9920862942        9.5523168726      -18.2365558700  MEMB      141             0.0000000000
     17594       141  23SM      H4F            28.9383462542        8.4791451632      -17.9301887819  MEMB      141             0.0000000000
     17595       141  23SM      H4G            27.9529756888        9.9024337407      -18.4130548152  MEMB      141             0.0000000000
     17596       141  23SM      C5F            29.6425002520       10.3341701722      -17.0883971810  MEMB      141             0.0000000000
     17597       141  23SM      H5F            29.7082268532       11.4144920836      -17.2806089446  MEMB      141             0.0000000000
     17598       141  23SM      H5G            30.6896050517        9.9780328770      -16.9533235455  MEMB      141             0.0000000000
     17599       141  23SM      C6F            28.8801411690       10.2650150122      -15.7764536266  MEMB      141             0.0000000000
     17600       141  23SM      H6F            27.9540811868        9.6633262625      -15.9045297134  MEMB      141             0.0000000000
     17601       141  23SM      H6G            28.5730187242       11.2950433174      -15.4745454393  MEMB      141             0.0000000000
     17602       141  23SM      C7F            29.7644080497        9.6820096387      -14.6801540079  MEMB      141             0.0000000000
     17603       141  23SM      H7F            30.7616887531       10.1695738809      -14.7019935494  MEMB      141             0.0000000000
     17604       141  23SM      H7G            29.9464957832        8.6097628663      -14.9040933108  MEMB      141             0.0000000000
     17605       141  23SM      C8F            29.1421043630        9.8647315537      -13.2935213328  MEMB      141             0.0000000000
     17606       141  23SM      H8F            29.0506123264       10.9539667129      -13.0894364191  MEMB      141             0.0000000000
     17607       141  23SM      H8G            29.8288637781        9.4358762537      -12.5312165071  MEMB      141             0.0000000000
     17608       141  23SM      C9F            27.7465471620        9.2430771363      -13.1461419890  MEMB      141             0.0000000000
     17609       141  23SM      H9F            27.0120330767        9.9019224642      -13.6621177380  MEMB      141             0.0000000000
     17610       141  23SM      H9G            27.4685577726        9.2465787342      -12.0685639254  MEMB      141             0.0000000000
     17611       141  23SM      C10F           27.6208288571        7.8154239087      -13.7166746225  MEMB      141             0.0000000000
     17612       141  23SM      H10F           27.6872248326        7.8540624865      -14.8245293855  MEMB      141             0.0000000000
     17613       141  23SM      H10G           26.6075014195        7.4272369885      -13.4898252391  MEMB      141             0.0000000000
     17614       141  23SM      C11F           28.6708572980        6.8093793255      -13.2109086764  MEMB      141             0.0000000000
     17615       141  23SM      H11F           29.6687698191        7.0650965869      -13.6263782056  MEMB      141             0.0000000000
     17616       141  23SM      H11G           28.4151533292        5.8011579360      -13.6022096778  MEMB      141             0.0000000000
     17617       141  23SM      C12F           28.8202643327        6.7595545571      -11.6868653531  MEMB      141             0.0000000000
     17618       141  23SM      H12F           29.2234803481        7.7359651439      -11.3447661173  MEMB      141             0.0000000000
     17619       141  23SM      H12G           29.5786368261        5.9857929001      -11.4457404946  MEMB      141             0.0000000000
     17620       141  23SM      C13F           27.5083887982        6.4522221078      -10.9601246661  MEMB      141             0.0000000000
     17621       141  23SM      H13F           27.1718307396        5.4282141350      -11.2391134541  MEMB      141             0.0000000000
     17622       141  23SM      H13G           26.7354028198        7.1662345428      -11.3075645275  MEMB      141             0.0000000000
     17623       141  23SM      C14F           27.5761540707        6.6068710003       -9.4345272326  MEMB      141             0.0000000000
     17624       141  23SM      H14F           28.2443141818        5.8198843556       -9.0234800843  MEMB      141             0.0000000000
     17625       141  23SM      H14G           26.5579699804        6.4109947254       -9.0360528080  MEMB      141             0.0000000000
     17626       141  23SM      C15F           28.0510140173        8.0054469785       -8.9702289532  MEMB      141             0.0000000000
     17627       141  23SM      H15F           27.5393381460        8.7831875475       -9.5790996674  MEMB      141             0.0000000000
     17628       141  23SM      H15G           29.1402970207        8.0716492924       -9.1879781203  MEMB      141             0.0000000000
     17629       141  23SM      C16F           27.8470011723        8.3113478783       -7.4658780952  MEMB      141             0.0000000000
     17630       141  23SM      H16F           26.8220334045        8.6900196039       -7.2961117861  MEMB      141             0.0000000000
     17631       141  23SM      H16G           28.5384908991        9.1278633906       -7.1643861790  MEMB      141             0.0000000000
     17632       141  23SM      C17F           28.0914979481        7.0515562095       -6.6252079455  MEMB      141             0.0000000000
     17633       141  23SM      H17F           29.0859813712        6.6998017855       -6.9535699094  MEMB      141             0.0000000000
     17634       141  23SM      H17G           27.3435808539        6.2816247438       -6.9201210343  MEMB      141             0.0000000000
     17635       141  23SM      C18F           28.0881110545        7.1280528894       -5.0795546163  MEMB      141             0.0000000000
     17636       141  23SM      H18F           27.3909311805        7.8852155995       -4.6922124662  MEMB      141             0.0000000000
     17637       141  23SM      H18G           29.0680339226        7.5068694400       -4.7396037949  MEMB      141             0.0000000000
     17638       141  23SM      C19F           27.7122566562        5.7418018664       -4.4666060314  MEMB      141             0.0000000000
     17639       141  23SM      H19F           28.2697313313        4.9186062248       -4.9571718626  MEMB      141             0.0000000000
     17640       141  23SM      H19G           26.6540435068        5.5115355965       -4.7076986722  MEMB      141             0.0000000000
     17641       141  23SM      C20F           27.9037052415        5.6279625877       -2.9452445138  MEMB      141             0.0000000000
     17642       141  23SM      H20F           27.4647324287        6.5323615387       -2.4843545228  MEMB      141             0.0000000000
     17643       141  23SM      H20G           28.9805913236        5.6413351649       -2.6788624710  MEMB      141             0.0000000000
     17644       141  23SM      C21F           27.2474250874        4.3708644627       -2.3397446958  MEMB      141             0.0000000000
     17645       141  23SM      H21F           27.8440033673        3.4798188755       -2.6185660863  MEMB      141             0.0000000000
     17646       141  23SM      H21G           26.2287416622        4.2353370941       -2.7679272513  MEMB      141             0.0000000000
     17647       141  23SM      C22F           27.1120903374        4.4327969172       -0.8119220490  MEMB      141             0.0000000000
     17648       141  23SM      H22F           28.0943208154        4.7171387883       -0.3681287094  MEMB      141             0.0000000000
     17649       141  23SM      H22G           26.8472932131        3.4254752030       -0.4152853200  MEMB      141             0.0000000000
     17650       141  23SM      C23F           26.0465110170        5.4358663936       -0.3742064015  MEMB      141             0.0000000000
     17651       141  23SM      H23F           26.3052503079        6.4434950237       -0.7517394112  MEMB      141             0.0000000000
     17652       141  23SM      H23G           25.9811183356        5.5039093861        0.7257053819  MEMB      141             0.0000000000
     17653       141  23SM      H23H           25.0449218098        5.1616876323       -0.7655561152  MEMB      141             0.0000000000
     17654       142  CHL1      C3            -17.8265443004      -21.0331989697      -17.4125092556  MEMB      142             0.0000000000
     17655       142  CHL1      H3            -18.8662459587      -20.8342205027      -17.0511181648  MEMB      142             0.0000000000
     17656       142  CHL1      O3            -17.8283581457      -21.0335341954      -18.8375888296  MEMB      142             0.0000000000
     17657       142  CHL1      H3'           -18.4051460785      -21.7941939052      -19.0720772255  MEMB      142             0.0000000000
     17658       142  CHL1      C4            -16.8858019499      -19.9308179613      -16.8988209525  MEMB      142             0.0000000000
     17659       142  CHL1      H4A           -15.8624822442      -20.1127396691      -17.2894373777  MEMB      142             0.0000000000
     17660       142  CHL1      H4B           -17.2208875372      -18.9601978324      -17.3302030892  MEMB      142             0.0000000000
     17661       142  CHL1      C5            -16.9028350732      -19.9005076401      -15.3861776508  MEMB      142             0.0000000000
     17662       142  CHL1      C6            -17.2787920354      -18.8045972366      -14.7285060061  MEMB      142             0.0000000000
     17663       142  CHL1      H6            -17.4518027568      -17.8834472995      -15.2944583157  MEMB      142             0.0000000000
     17664       142  CHL1      C7            -17.4578633738      -18.7330808129      -13.2477293012  MEMB      142             0.0000000000
     17665       142  CHL1      H7A           -17.1893338110      -17.7388161174      -12.8304377942  MEMB      142             0.0000000000
     17666       142  CHL1      H7B           -18.5257016058      -18.9351420635      -13.0187226001  MEMB      142             0.0000000000
     17667       142  CHL1      C8            -16.6421232403      -19.8042775170      -12.5287066282  MEMB      142             0.0000000000
     17668       142  CHL1      H8            -15.5720486748      -19.5130446736      -12.6054863662  MEMB      142             0.0000000000
     17669       142  CHL1      C14           -17.0907642260      -19.8685767010      -11.0837959390  MEMB      142             0.0000000000
     17670       142  CHL1      H14           -18.1424315120      -20.2574636964      -11.0928915361  MEMB      142             0.0000000000
     17671       142  CHL1      C15           -17.1535252880      -18.5705895824      -10.2423275171  MEMB      142             0.0000000000
     17672       142  CHL1      H15A          -16.2726704182      -17.9270212033      -10.4484560925  MEMB      142             0.0000000000
     17673       142  CHL1      H15B          -18.0700504497      -17.9902422817      -10.4523707798  MEMB      142             0.0000000000
     17674       142  CHL1      C16           -17.1057459533      -19.0884861524       -8.7922157738  MEMB      142             0.0000000000
     17675       142  CHL1      H16A          -16.2407268901      -18.6299095505       -8.2662749368  MEMB      142             0.0000000000
     17676       142  CHL1      H16B          -18.0285919702      -18.8397690664       -8.2326421513  MEMB      142             0.0000000000
     17677       142  CHL1      C17           -16.9230004845      -20.6380327088       -8.9135454905  MEMB      142             0.0000000000
     17678       142  CHL1      H17           -17.9521375649      -21.0700671841       -8.9604590506  MEMB      142             0.0000000000
     17679       142  CHL1      C13           -16.2779952316      -20.8437731982      -10.2723778106  MEMB      142             0.0000000000
     17680       142  CHL1      C18           -14.8193154928      -20.3394457380      -10.1975410727  MEMB      142             0.0000000000
     17681       142  CHL1      H18A          -14.3506282293      -20.3643114156      -11.1991617720  MEMB      142             0.0000000000
     17682       142  CHL1      H18B          -14.7107797678      -19.3111012655       -9.8064476335  MEMB      142             0.0000000000
     17683       142  CHL1      H18C          -14.2249627851      -21.0056637560       -9.5431988935  MEMB      142             0.0000000000
     17684       142  CHL1      C12           -16.3810749988      -22.2581565363      -10.8716308234  MEMB      142             0.0000000000
     17685       142  CHL1      H12A          -15.6259132642      -22.9290125731      -10.4086419452  MEMB      142             0.0000000000
     17686       142  CHL1      H12B          -17.3962422236      -22.6642374140      -10.6793956089  MEMB      142             0.0000000000
     17687       142  CHL1      C11           -16.0789770996      -22.2753945787      -12.3670417012  MEMB      142             0.0000000000
     17688       142  CHL1      H11A          -14.9828133836      -22.1037145282      -12.4403395516  MEMB      142             0.0000000000
     17689       142  CHL1      H11B          -16.3034392606      -23.2843916666      -12.7703501008  MEMB      142             0.0000000000
     17690       142  CHL1      C9            -16.8422054468      -21.1858443253      -13.1606540867  MEMB      142             0.0000000000
     17691       142  CHL1      H9            -17.9299000991      -21.4138081172      -13.0308144168  MEMB      142             0.0000000000
     17692       142  CHL1      C10           -16.5752330047      -21.2204904917      -14.6854555414  MEMB      142             0.0000000000
     17693       142  CHL1      C19           -15.0683282438      -21.4298707258      -14.9055272712  MEMB      142             0.0000000000
     17694       142  CHL1      H19A          -14.4945421282      -20.5982187363      -14.4493130746  MEMB      142             0.0000000000
     17695       142  CHL1      H19B          -14.7137377883      -22.3877689493      -14.4790800668  MEMB      142             0.0000000000
     17696       142  CHL1      H19C          -14.8197372818      -21.4710246297      -15.9832503690  MEMB      142             0.0000000000
     17697       142  CHL1      C1            -17.3648161448      -22.3898266039      -15.3270036322  MEMB      142             0.0000000000
     17698       142  CHL1      H1A           -16.9372099563      -23.3337272484      -14.9394523790  MEMB      142             0.0000000000
     17699       142  CHL1      H1B           -18.4184199186      -22.3379107713      -14.9722378773  MEMB      142             0.0000000000
     17700       142  CHL1      C2            -17.3774098594      -22.3999592181      -16.8679356567  MEMB      142             0.0000000000
     17701       142  CHL1      H2A           -18.0644485795      -23.2010903948      -17.2197578270  MEMB      142             0.0000000000
     17702       142  CHL1      H2B           -16.3605754056      -22.6250574897      -17.2579962898  MEMB      142             0.0000000000
     17703       142  CHL1      C20           -16.2066744586      -21.2998905816       -7.7586002880  MEMB      142             0.0000000000
     17704       142  CHL1      H20           -15.1420767258      -20.9603896848       -7.7304343077  MEMB      142             0.0000000000
     17705       142  CHL1      C21           -16.2050565005      -22.8307285829       -7.8817715407  MEMB      142             0.0000000000
     17706       142  CHL1      H21A          -16.1504175370      -23.2624073725       -6.8714148360  MEMB      142             0.0000000000
     17707       142  CHL1      H21B          -15.3096143496      -23.1822797514       -8.4338052929  MEMB      142             0.0000000000
     17708       142  CHL1      H21C          -17.1265157541      -23.2052247610       -8.3720939360  MEMB      142             0.0000000000
     17709       142  CHL1      C22           -16.8097468335      -20.9263041187       -6.4156358620  MEMB      142             0.0000000000
     17710       142  CHL1      H22A          -17.5537487989      -20.1058511994       -6.4874466237  MEMB      142             0.0000000000
     17711       142  CHL1      H22B          -17.3414831788      -21.7933915692       -5.9667933070  MEMB      142             0.0000000000
     17712       142  CHL1      C23           -15.6825957202      -20.4739139649       -5.5146823815  MEMB      142             0.0000000000
     17713       142  CHL1      H23A          -14.9138889868      -21.2598719843       -5.4034845285  MEMB      142             0.0000000000
     17714       142  CHL1      H23B          -15.1751588912      -19.5868625410       -5.9646530216  MEMB      142             0.0000000000
     17715       142  CHL1      C24           -16.2586108484      -20.1194778057       -4.1756118231  MEMB      142             0.0000000000
     17716       142  CHL1      H24A          -17.0961020953      -19.4049817077       -4.3622820749  MEMB      142             0.0000000000
     17717       142  CHL1      H24B          -16.6919208755      -21.0105881061       -3.6725253785  MEMB      142             0.0000000000
     17718       142  CHL1      C25           -15.2066399927      -19.4518636590       -3.3134857208  MEMB      142             0.0000000000
     17719       142  CHL1      H25           -14.2942616964      -19.2203461784       -3.9162494605  MEMB      142             0.0000000000
     17720       142  CHL1      C26           -15.7952345220      -18.1305536249       -2.8769090002  MEMB      142             0.0000000000
     17721       142  CHL1      H26A          -15.8479507942      -17.4026174458       -3.7149738833  MEMB      142             0.0000000000
     17722       142  CHL1      H26B          -16.8183805168      -18.2896717801       -2.4861454102  MEMB      142             0.0000000000
     17723       142  CHL1      H26C          -15.1637917387      -17.7230099425       -2.0774505380  MEMB      142             0.0000000000
     17724       142  CHL1      C27           -14.8070519094      -20.3494188704       -2.1366874313  MEMB      142             0.0000000000
     17725       142  CHL1      H27A          -14.2921381033      -21.2595662517       -2.5132341839  MEMB      142             0.0000000000
     17726       142  CHL1      H27B          -14.1267975158      -19.8102359908       -1.4449686060  MEMB      142             0.0000000000
     17727       142  CHL1      H27C          -15.7134401592      -20.6618741434       -1.5752125141  MEMB      142             0.0000000000
     17728       143  CHL1      C3             18.8397926679       21.6400147214      -17.4048851450  MEMB      143             0.0000000000
     17729       143  CHL1      H3             19.4055260287       20.7035321253      -17.5997058801  MEMB      143             0.0000000000
     17730       143  CHL1      O3             18.0154114182       21.9013744761      -18.5239357463  MEMB      143             0.0000000000
     17731       143  CHL1      H3'            18.5712482206       21.7773322437      -19.3072009020  MEMB      143             0.0000000000
     17732       143  CHL1      C4             17.9226030169       21.4526096895      -16.1933384677  MEMB      143             0.0000000000
     17733       143  CHL1      H4A            17.2182467790       22.3072428478      -16.1298489429  MEMB      143             0.0000000000
     17734       143  CHL1      H4B            17.2924249827       20.5557098422      -16.4001985126  MEMB      143             0.0000000000
     17735       143  CHL1      C5             18.7031297106       21.3197590143      -14.9072667253  MEMB      143             0.0000000000
     17736       143  CHL1      C6             18.5679136795       20.2300641865      -14.1467401524  MEMB      143             0.0000000000
     17737       143  CHL1      H6             17.8586455806       19.4336119136      -14.4236386912  MEMB      143             0.0000000000
     17738       143  CHL1      C7             19.3640646501       20.0326524652      -12.9061983443  MEMB      143             0.0000000000
     17739       143  CHL1      H7A            18.8219002121       19.4216956919      -12.1552687216  MEMB      143             0.0000000000
     17740       143  CHL1      H7B            20.2710419432       19.5014678356      -13.2042601238  MEMB      143             0.0000000000
     17741       143  CHL1      C8             19.9226540683       21.3299521633      -12.3061055312  MEMB      143             0.0000000000
     17742       143  CHL1      H8             19.0636650100       21.8924135064      -11.8805695298  MEMB      143             0.0000000000
     17743       143  CHL1      C14            20.9637048042       20.9783120973      -11.2594821946  MEMB      143             0.0000000000
     17744       143  CHL1      H14            21.8685093183       20.6126307086      -11.8120900089  MEMB      143             0.0000000000
     17745       143  CHL1      C15            20.6584982386       19.8452529777      -10.2725708056  MEMB      143             0.0000000000
     17746       143  CHL1      H15A           19.5832301997       19.7929770016      -10.0065711627  MEMB      143             0.0000000000
     17747       143  CHL1      H15B           20.9721573465       18.8799426170      -10.7203980176  MEMB      143             0.0000000000
     17748       143  CHL1      C16            21.5046006341       20.1946229040       -9.0504119760  MEMB      143             0.0000000000
     17749       143  CHL1      H16A           20.8473513584       20.2917327388       -8.1584554488  MEMB      143             0.0000000000
     17750       143  CHL1      H16B           22.2896894046       19.4313298725       -8.8827643706  MEMB      143             0.0000000000
     17751       143  CHL1      C17            22.2377198957       21.5187468272       -9.3368193984  MEMB      143             0.0000000000
     17752       143  CHL1      H17            23.1571307370       21.2540785083       -9.8449549026  MEMB      143             0.0000000000
     17753       143  CHL1      C13            21.4469058201       22.1685541042      -10.4672655756  MEMB      143             0.0000000000
     17754       143  CHL1      C18            20.2718575726       22.8046807772       -9.7827102216  MEMB      143             0.0000000000
     17755       143  CHL1      H18A           19.6200264547       22.0976184162       -9.2322848640  MEMB      143             0.0000000000
     17756       143  CHL1      H18B           20.7047933602       23.4980141436       -9.0386869076  MEMB      143             0.0000000000
     17757       143  CHL1      H18C           19.6526805386       23.3789573450      -10.5019961307  MEMB      143             0.0000000000
     17758       143  CHL1      C12            22.2054487658       23.0644948178      -11.4723923644  MEMB      143             0.0000000000
     17759       143  CHL1      H12A           22.5705248300       23.9935380893      -10.9956946907  MEMB      143             0.0000000000
     17760       143  CHL1      H12B           23.0896580940       22.4791767085      -11.8069339071  MEMB      143             0.0000000000
     17761       143  CHL1      C11            21.3588323490       23.4021245314      -12.7300719594  MEMB      143             0.0000000000
     17762       143  CHL1      H11A           20.6128195404       24.1541549999      -12.4024693176  MEMB      143             0.0000000000
     17763       143  CHL1      H11B           22.0213709675       23.8820934191      -13.4824902274  MEMB      143             0.0000000000
     17764       143  CHL1      C9             20.6271914414       22.1714062955      -13.3710315781  MEMB      143             0.0000000000
     17765       143  CHL1      H9             21.4470899163       21.5142802870      -13.7566430998  MEMB      143             0.0000000000
     17766       143  CHL1      C10            19.7245915043       22.4471015373      -14.6133736638  MEMB      143             0.0000000000
     17767       143  CHL1      C19            18.9440430420       23.7640301284      -14.3752596761  MEMB      143             0.0000000000
     17768       143  CHL1      H19A           18.2347822938       23.9739043690      -15.2016960443  MEMB      143             0.0000000000
     17769       143  CHL1      H19B           18.3730831186       23.7167297324      -13.4252526345  MEMB      143             0.0000000000
     17770       143  CHL1      H19C           19.6412879741       24.6261281412      -14.3335518739  MEMB      143             0.0000000000
     17771       143  CHL1      C1             20.6250886413       22.5684951700      -15.8773920851  MEMB      143             0.0000000000
     17772       143  CHL1      H1A            21.3385393253       23.4036990280      -15.7291325763  MEMB      143             0.0000000000
     17773       143  CHL1      H1B            21.2189157166       21.6312268414      -15.9818427366  MEMB      143             0.0000000000
     17774       143  CHL1      C2             19.8432304028       22.7814245901      -17.1874540074  MEMB      143             0.0000000000
     17775       143  CHL1      H2A            20.5505906276       22.8311126944      -18.0416367015  MEMB      143             0.0000000000
     17776       143  CHL1      H2B            19.2943488027       23.7465380622      -17.1513349206  MEMB      143             0.0000000000
     17777       143  CHL1      C20            22.7111055357       22.2043624848       -8.0405245738  MEMB      143             0.0000000000
     17778       143  CHL1      H20            21.8453046501       22.4205555932       -7.3776971378  MEMB      143             0.0000000000
     17779       143  CHL1      C21            23.4727084491       23.4985139721       -8.3432727911  MEMB      143             0.0000000000
     17780       143  CHL1      H21A           24.3759200765       23.2255960379       -8.9289143038  MEMB      143             0.0000000000
     17781       143  CHL1      H21B           23.8084432017       23.9864427741       -7.4043628478  MEMB      143             0.0000000000
     17782       143  CHL1      H21C           22.8614263667       24.2227225153       -8.9141900164  MEMB      143             0.0000000000
     17783       143  CHL1      C22            23.7083794175       21.2457884113       -7.3390219544  MEMB      143             0.0000000000
     17784       143  CHL1      H22A           23.2820011707       20.2281793204       -7.2280029121  MEMB      143             0.0000000000
     17785       143  CHL1      H22B           24.5807068881       21.1813111541       -8.0259828152  MEMB      143             0.0000000000
     17786       143  CHL1      C23            24.2633403215       21.6266975585       -5.9645733334  MEMB      143             0.0000000000
     17787       143  CHL1      H23A           24.8989513164       20.7692441531       -5.6412365603  MEMB      143             0.0000000000
     17788       143  CHL1      H23B           24.9233315202       22.5065696789       -6.0379038300  MEMB      143             0.0000000000
     17789       143  CHL1      C24            23.1850284945       21.9031379690       -4.9221407870  MEMB      143             0.0000000000
     17790       143  CHL1      H24A           22.5975458492       22.7957727629       -5.2370676661  MEMB      143             0.0000000000
     17791       143  CHL1      H24B           22.4872091733       21.0374121205       -4.8753332088  MEMB      143             0.0000000000
     17792       143  CHL1      C25            23.7532377862       22.1756527676       -3.5196190220  MEMB      143             0.0000000000
     17793       143  CHL1      H25            24.4203521911       23.0693327576       -3.5581672077  MEMB      143             0.0000000000
     17794       143  CHL1      C26            22.6071561295       22.4593109368       -2.5703431618  MEMB      143             0.0000000000
     17795       143  CHL1      H26A           21.9891040932       21.5399599577       -2.4738707734  MEMB      143             0.0000000000
     17796       143  CHL1      H26B           22.9370456958       22.7608413752       -1.5562989296  MEMB      143             0.0000000000
     17797       143  CHL1      H26C           21.9515620218       23.2501540878       -2.9898833611  MEMB      143             0.0000000000
     17798       143  CHL1      C27            24.5295504452       20.9846976299       -2.9660259958  MEMB      143             0.0000000000
     17799       143  CHL1      H27A           23.8749819173       20.0885221455       -2.9344030051  MEMB      143             0.0000000000
     17800       143  CHL1      H27B           25.4332188394       20.7641771538       -3.5640322126  MEMB      143             0.0000000000
     17801       143  CHL1      H27C           24.8603379183       21.2102396095       -1.9383801049  MEMB      143             0.0000000000
     17802       144  DOPC      N             -31.2329201863        0.0180485909      -20.0596864420  MEMB      144             0.0000000000
     17803       144  DOPC      C12           -29.9111662071        0.7855850301      -20.2034427866  MEMB      144             0.0000000000
     17804       144  DOPC      H12A          -29.6672373976        1.2937264088      -19.2689328853  MEMB      144             0.0000000000
     17805       144  DOPC      H12B          -29.9947356624        1.5645500055      -20.9431444226  MEMB      144             0.0000000000
     17806       144  DOPC      C13           -31.1406756593       -0.7567399443      -18.7724279253  MEMB      144             0.0000000000
     17807       144  DOPC      H13A          -30.2302165655       -1.3533559968      -18.7938684903  MEMB      144             0.0000000000
     17808       144  DOPC      H13B          -30.9920933355       -0.0862130571      -17.9311092375  MEMB      144             0.0000000000
     17809       144  DOPC      H13C          -31.9806644078       -1.3988995947      -18.5973988752  MEMB      144             0.0000000000
     17810       144  DOPC      C14           -31.3847818434       -0.9176495309      -21.2125306898  MEMB      144             0.0000000000
     17811       144  DOPC      H14A          -32.2230932909       -1.5847364234      -21.0867443892  MEMB      144             0.0000000000
     17812       144  DOPC      H14B          -31.5067085415       -0.4069342309      -22.1659090031  MEMB      144             0.0000000000
     17813       144  DOPC      H14C          -30.4797831575       -1.5120363681      -21.3073988805  MEMB      144             0.0000000000
     17814       144  DOPC      C15           -32.4165743650        0.9239425812      -19.9698074372  MEMB      144             0.0000000000
     17815       144  DOPC      H15A          -33.3312651383        0.3539486579      -20.0994114662  MEMB      144             0.0000000000
     17816       144  DOPC      H15B          -32.4425290784        1.6645092197      -20.7640939345  MEMB      144             0.0000000000
     17817       144  DOPC      H15C          -32.4441535939        1.4337636142      -19.0165651143  MEMB      144             0.0000000000
     17818       144  DOPC      C11           -28.6440844723       -0.0576634246      -20.5301586996  MEMB      144             0.0000000000
     17819       144  DOPC      H11A          -28.7953624468       -0.6286803460      -21.4703412385  MEMB      144             0.0000000000
     17820       144  DOPC      H11B          -27.7858112837        0.6317762612      -20.7340161329  MEMB      144             0.0000000000
     17821       144  DOPC      P             -27.5612153718       -0.3855800761      -18.2042428724  MEMB      144             0.0000000000
     17822       144  DOPC      O13           -27.8292034338        1.0777095773      -18.1391663854  MEMB      144             0.0000000000
     17823       144  DOPC      O14           -26.1922522635       -0.9256755696      -18.3099705530  MEMB      144             0.0000000000
     17824       144  DOPC      O12           -28.3367801801       -0.9680540610      -19.4700962691  MEMB      144             0.0000000000
     17825       144  DOPC      O11           -28.3296298637       -1.2262141627      -17.0368404337  MEMB      144             0.0000000000
     17826       144  DOPC      C1            -28.1765881794       -2.6771400556      -17.0749092769  MEMB      144             0.0000000000
     17827       144  DOPC      HA            -27.0991993437       -2.9550614155      -17.0537893099  MEMB      144             0.0000000000
     17828       144  DOPC      HB            -28.6247581450       -3.0541006999      -18.0255238359  MEMB      144             0.0000000000
     17829       144  DOPC      C2            -28.8520595780       -3.5893393163      -15.9489171848  MEMB      144             0.0000000000
     17830       144  DOPC      HS            -29.2282851992       -4.5072963214      -16.4491798478  MEMB      144             0.0000000000
     17831       144  DOPC      O21           -29.9573630768       -2.9127131472      -15.3362289085  MEMB      144             0.0000000000
     17832       144  DOPC      C21           -30.6997572326       -3.5866026988      -14.4573372492  MEMB      144             0.0000000000
     17833       144  DOPC      O22           -30.5699845673       -4.7486506067      -14.1430369683  MEMB      144             0.0000000000
     17834       144  DOPC      C22           -31.7213026360       -2.6371144981      -13.8719046400  MEMB      144             0.0000000000
     17835       144  DOPC      H2R           -32.2471504168       -3.1597143946      -13.0504759389  MEMB      144             0.0000000000
     17836       144  DOPC      H2S           -32.4649042505       -2.4689551000      -14.6641924250  MEMB      144             0.0000000000
     17837       144  DOPC      C3            -27.8106769603       -4.0511094176      -14.8549579912  MEMB      144             0.0000000000
     17838       144  DOPC      HX            -27.0237800329       -4.6420300702      -15.3742502005  MEMB      144             0.0000000000
     17839       144  DOPC      HY            -28.2770896680       -4.7436797658      -14.1265164035  MEMB      144             0.0000000000
     17840       144  DOPC      O31           -27.2021253437       -2.9447852531      -14.1827717679  MEMB      144             0.0000000000
     17841       144  DOPC      C31           -26.4847852137       -3.2288224189      -13.0961207904  MEMB      144             0.0000000000
     17842       144  DOPC      O32           -26.4319736333       -4.3181316875      -12.5578787397  MEMB      144             0.0000000000
     17843       144  DOPC      C32           -25.6743451482       -2.0102659545      -12.6875776170  MEMB      144             0.0000000000
     17844       144  DOPC      H2X           -26.2183548622       -1.4381609608      -11.9168121861  MEMB      144             0.0000000000
     17845       144  DOPC      H2Y           -24.7367923969       -2.3896042069      -12.2246398927  MEMB      144             0.0000000000
     17846       144  DOPC      C23           -30.9993943700       -1.3637181322      -13.3894973864  MEMB      144             0.0000000000
     17847       144  DOPC      H3R           -31.7033544989       -0.6125506596      -13.0186047800  MEMB      144             0.0000000000
     17848       144  DOPC      H3S           -30.4062978062       -0.8776366563      -14.2003274765  MEMB      144             0.0000000000
     17849       144  DOPC      C24           -30.1036705514       -1.6516705639      -12.1985755343  MEMB      144             0.0000000000
     17850       144  DOPC      H4R           -29.6983368637       -0.6923371677      -11.8018286806  MEMB      144             0.0000000000
     17851       144  DOPC      H4S           -29.2468604447       -2.2436109659      -12.5955910542  MEMB      144             0.0000000000
     17852       144  DOPC      C25           -30.8005522179       -2.4219468825      -11.0628635997  MEMB      144             0.0000000000
     17853       144  DOPC      H5R           -31.0185410600       -3.4622645586      -11.3970325872  MEMB      144             0.0000000000
     17854       144  DOPC      H5S           -31.7594720795       -1.9346020994      -10.7819818371  MEMB      144             0.0000000000
     17855       144  DOPC      C26           -29.8996937652       -2.5228677257       -9.8433430901  MEMB      144             0.0000000000
     17856       144  DOPC      H6R           -30.2334248010       -3.3578062727       -9.1842714730  MEMB      144             0.0000000000
     17857       144  DOPC      H6S           -29.9523098817       -1.5880961626       -9.2558154007  MEMB      144             0.0000000000
     17858       144  DOPC      C27           -28.4626297895       -2.7567551919      -10.2967442809  MEMB      144             0.0000000000
     17859       144  DOPC      H7R           -28.0630207241       -1.9007474912      -10.8821371851  MEMB      144             0.0000000000
     17860       144  DOPC      H7S           -28.4698614036       -3.6729996335      -10.9354527936  MEMB      144             0.0000000000
     17861       144  DOPC      C28           -27.5218352612       -2.9011596069       -9.1385262475  MEMB      144             0.0000000000
     17862       144  DOPC      H8R           -28.1081914752       -3.3935050797       -8.3379701154  MEMB      144             0.0000000000
     17863       144  DOPC      H8S           -27.2726699451       -1.8866308640       -8.7464714834  MEMB      144             0.0000000000
     17864       144  DOPC      C29           -26.3099023874       -3.6831103349       -9.5996226449  MEMB      144             0.0000000000
     17865       144  DOPC      H9R           -26.5097729629       -4.5138774126      -10.2885676035  MEMB      144             0.0000000000
     17866       144  DOPC      C210          -25.0584457873       -3.4850539670       -9.1796436118  MEMB      144             0.0000000000
     17867       144  DOPC      H10R          -24.2156067137       -4.0637242853       -9.5869252778  MEMB      144             0.0000000000
     17868       144  DOPC      C211          -24.7593072940       -2.4374529147       -8.1695383912  MEMB      144             0.0000000000
     17869       144  DOPC      H11R          -25.1287365902       -1.4350451433       -8.4935621681  MEMB      144             0.0000000000
     17870       144  DOPC      H11S          -23.6688319426       -2.3266752228       -7.9687092017  MEMB      144             0.0000000000
     17871       144  DOPC      C212          -25.4931183654       -2.8827398655       -6.8913782794  MEMB      144             0.0000000000
     17872       144  DOPC      H12R          -24.9953984291       -3.7719278240       -6.4536829108  MEMB      144             0.0000000000
     17873       144  DOPC      H12S          -26.5694559845       -3.0853011424       -6.9823187188  MEMB      144             0.0000000000
     17874       144  DOPC      C213          -25.4565192959       -1.7205664503       -5.9803177640  MEMB      144             0.0000000000
     17875       144  DOPC      H13R          -25.8829622620       -0.8021608233       -6.4374783211  MEMB      144             0.0000000000
     17876       144  DOPC      H13S          -24.3641486770       -1.5973237743       -6.0428544675  MEMB      144             0.0000000000
     17877       144  DOPC      C214          -26.0359910194       -1.8742227382       -4.5744833823  MEMB      144             0.0000000000
     17878       144  DOPC      H14R          -25.5533848553       -2.6964214124       -3.9996533491  MEMB      144             0.0000000000
     17879       144  DOPC      H14S          -27.1215186708       -2.0808219607       -4.5904167558  MEMB      144             0.0000000000
     17880       144  DOPC      C215          -25.7480788575       -0.5574772517       -3.8823523172  MEMB      144             0.0000000000
     17881       144  DOPC      H15R          -25.9968643651       -0.5817612593       -2.8210189095  MEMB      144             0.0000000000
     17882       144  DOPC      H15S          -26.4077208312        0.2558339535       -4.2531431999  MEMB      144             0.0000000000
     17883       144  DOPC      C216          -24.2834987721       -0.1969560708       -4.1561566275  MEMB      144             0.0000000000
     17884       144  DOPC      H16R          -23.9949340376        0.6771513802       -3.5985451823  MEMB      144             0.0000000000
     17885       144  DOPC      H16S          -24.2873617750        0.2220702695       -5.1870482525  MEMB      144             0.0000000000
     17886       144  DOPC      C217          -23.1842271243       -1.3219180500       -4.0863779695  MEMB      144             0.0000000000
     17887       144  DOPC      H17R          -22.6887685236       -1.3530441675       -5.0876948423  MEMB      144             0.0000000000
     17888       144  DOPC      H17S          -23.6550273217       -2.3148541872       -3.9593545876  MEMB      144             0.0000000000
     17889       144  DOPC      C218          -22.1019574409       -1.2436005616       -3.0175208262  MEMB      144             0.0000000000
     17890       144  DOPC      H18R          -21.4267746019       -2.1245068274       -3.0556498930  MEMB      144             0.0000000000
     17891       144  DOPC      H18S          -22.5913869014       -1.1447050883       -2.0325024211  MEMB      144             0.0000000000
     17892       144  DOPC      H18T          -21.4497120515       -0.3760322505       -3.1301687398  MEMB      144             0.0000000000
     17893       144  DOPC      C33           -25.3346250080       -1.1368422183      -13.9167599647  MEMB      144             0.0000000000
     17894       144  DOPC      H3X           -25.0880949772       -1.7535630061      -14.8105941021  MEMB      144             0.0000000000
     17895       144  DOPC      H3Y           -24.4080598914       -0.6136518654      -13.6541391876  MEMB      144             0.0000000000
     17896       144  DOPC      C34           -26.3779255126       -0.0679575317      -14.3055595350  MEMB      144             0.0000000000
     17897       144  DOPC      H4X           -27.2720104202       -0.5589847138      -14.7497764436  MEMB      144             0.0000000000
     17898       144  DOPC      H4Y           -25.9250155162        0.5625893639      -15.1108407442  MEMB      144             0.0000000000
     17899       144  DOPC      C35           -26.8194624573        0.8414467700      -13.1467776815  MEMB      144             0.0000000000
     17900       144  DOPC      H5X           -25.9109256576        1.2293721974      -12.6394461531  MEMB      144             0.0000000000
     17901       144  DOPC      H5Y           -27.4022795913        0.2434021601      -12.4110500453  MEMB      144             0.0000000000
     17902       144  DOPC      C36           -27.6874224798        2.0285162073      -13.5955863756  MEMB      144             0.0000000000
     17903       144  DOPC      H6X           -27.1840440456        2.5252698350      -14.4573375016  MEMB      144             0.0000000000
     17904       144  DOPC      H6Y           -28.6574990359        1.6293604255      -13.9682202571  MEMB      144             0.0000000000
     17905       144  DOPC      C37           -27.9370168976        3.0924006136      -12.5005903316  MEMB      144             0.0000000000
     17906       144  DOPC      H7X           -27.0422590284        3.7569510752      -12.4699508132  MEMB      144             0.0000000000
     17907       144  DOPC      H7Y           -28.8110649863        3.7113842985      -12.8096884207  MEMB      144             0.0000000000
     17908       144  DOPC      C38           -28.1683188411        2.5160251704      -11.0837018083  MEMB      144             0.0000000000
     17909       144  DOPC      H8X           -27.2961345467        1.8893320283      -10.8022525923  MEMB      144             0.0000000000
     17910       144  DOPC      H8Y           -29.0547349485        1.8428861874      -11.1236867559  MEMB      144             0.0000000000
     17911       144  DOPC      C39           -28.3684023400        3.5961324513      -10.0495966113  MEMB      144             0.0000000000
     17912       144  DOPC      H9X           -28.8036630725        4.5311962654      -10.4374856496  MEMB      144             0.0000000000
     17913       144  DOPC      C310          -28.1498189131        3.4983171971       -8.7233871211  MEMB      144             0.0000000000
     17914       144  DOPC      H10X          -28.3912249484        4.3741988454       -8.1018335017  MEMB      144             0.0000000000
     17915       144  DOPC      C311          -27.6556241062        2.2959640305       -7.9496325688  MEMB      144             0.0000000000
     17916       144  DOPC      H11X          -26.8162146753        2.6168426195       -7.2928818018  MEMB      144             0.0000000000
     17917       144  DOPC      H11Y          -27.2452363561        1.5042662991       -8.6172065328  MEMB      144             0.0000000000
     17918       144  DOPC      C312          -28.7331309609        1.6363984484       -7.0533288192  MEMB      144             0.0000000000
     17919       144  DOPC      H12X          -29.4197697670        2.4093777603       -6.6569987235  MEMB      144             0.0000000000
     17920       144  DOPC      H12Y          -28.2273487447        1.1812530658       -6.1730469271  MEMB      144             0.0000000000
     17921       144  DOPC      C313          -29.5086520457        0.5134785064       -7.7704874728  MEMB      144             0.0000000000
     17922       144  DOPC      H13X          -30.0161581486        0.9119671826       -8.6707322043  MEMB      144             0.0000000000
     17923       144  DOPC      H13Y          -28.7577171665       -0.2207777979       -8.1383985974  MEMB      144             0.0000000000
     17924       144  DOPC      C314          -30.5383098788       -0.2548331125       -6.9137505147  MEMB      144             0.0000000000
     17925       144  DOPC      H14X          -31.1918073915        0.4260031045       -6.3355333920  MEMB      144             0.0000000000
     17926       144  DOPC      H14Y          -31.2088223714       -0.8327418644       -7.5886727850  MEMB      144             0.0000000000
     17927       144  DOPC      C315          -29.8614054865       -1.2138520285       -5.9315510617  MEMB      144             0.0000000000
     17928       144  DOPC      H15X          -29.2341455143       -0.5958968067       -5.2547585450  MEMB      144             0.0000000000
     17929       144  DOPC      H15Y          -29.1782921968       -1.8953985037       -6.4861520995  MEMB      144             0.0000000000
     17930       144  DOPC      C316          -30.8482729045       -2.0445045734       -5.1015925335  MEMB      144             0.0000000000
     17931       144  DOPC      H16X          -31.7000720917       -1.4075023749       -4.7701490996  MEMB      144             0.0000000000
     17932       144  DOPC      H16Y          -31.2630030149       -2.8588980485       -5.7400416765  MEMB      144             0.0000000000
     17933       144  DOPC      C317          -30.1892392814       -2.6618222977       -3.8611341723  MEMB      144             0.0000000000
     17934       144  DOPC      H17X          -30.9527869201       -3.2947815856       -3.3539501124  MEMB      144             0.0000000000
     17935       144  DOPC      H17Y          -29.3680817567       -3.3318793685       -4.1970436095  MEMB      144             0.0000000000
     17936       144  DOPC      C318          -29.6207860037       -1.6484556935       -2.8586844362  MEMB      144             0.0000000000
     17937       144  DOPC      H18X          -28.6728656208       -1.2064630255       -3.2273709047  MEMB      144             0.0000000000
     17938       144  DOPC      H18Y          -30.3419426937       -0.8220316492       -2.6901623971  MEMB      144             0.0000000000
     17939       144  DOPC      H18Z          -29.4068746313       -2.1318837362       -1.8826024170  MEMB      144             0.0000000000
     17940       145  23SM      N              14.7281834155      -26.4293206696      -27.9903131461  MEMB      145             0.0000000000
     17941       145  23SM      C15            13.9055295109      -27.6733281451      -27.9513896163  MEMB      145             0.0000000000
     17942       145  23SM      H15A           13.1782093253      -27.6525912623      -28.7542785928  MEMB      145             0.0000000000
     17943       145  23SM      H15B           13.3684792727      -27.7257154854      -27.0043927422  MEMB      145             0.0000000000
     17944       145  23SM      H15C           14.5307817805      -28.5506140946      -28.0401281077  MEMB      145             0.0000000000
     17945       145  23SM      C14            15.7883896730      -26.5573085630      -26.9253695295  MEMB      145             0.0000000000
     17946       145  23SM      H14A           16.6264762434      -25.8803882581      -27.0946967490  MEMB      145             0.0000000000
     17947       145  23SM      H14B           16.2454634966      -27.5422926156      -26.8753479868  MEMB      145             0.0000000000
     17948       145  23SM      H14C           15.3802013135      -26.3012694542      -25.9446334681  MEMB      145             0.0000000000
     17949       145  23SM      C13            15.3707322389      -26.3625354736      -29.3406062869  MEMB      145             0.0000000000
     17950       145  23SM      H13A           15.8331065586      -25.3906281439      -29.5037304991  MEMB      145             0.0000000000
     17951       145  23SM      H13B           14.6640022677      -26.4765992159      -30.1613559167  MEMB      145             0.0000000000
     17952       145  23SM      H13C           16.1364972450      -27.1156577695      -29.4202615220  MEMB      145             0.0000000000
     17953       145  23SM      C12            13.8169664237      -25.2133951448      -27.8449462514  MEMB      145             0.0000000000
     17954       145  23SM      H12A           13.2096607959      -25.1600917817      -28.7439147641  MEMB      145             0.0000000000
     17955       145  23SM      H12B           14.3918191271      -24.2930013799      -27.7837685827  MEMB      145             0.0000000000
     17956       145  23SM      C11            12.7970307211      -25.1877701337      -26.6944389538  MEMB      145             0.0000000000
     17957       145  23SM      H11A           12.2052318639      -26.1374384706      -26.6982796072  MEMB      145             0.0000000000
     17958       145  23SM      H11B           12.0673793376      -24.3645869540      -26.9267659213  MEMB      145             0.0000000000
     17959       145  23SM      P              12.4442604528      -25.0570868274      -24.2188973013  MEMB      145             0.0000000000
     17960       145  23SM      O13            11.3791456341      -24.0600479473      -24.5085122667  MEMB      145             0.0000000000
     17961       145  23SM      O14            12.0976042719      -26.4846349521      -24.0861075917  MEMB      145             0.0000000000
     17962       145  23SM      O11            13.2614646930      -24.5469137561      -22.9494478939  MEMB      145             0.0000000000
     17963       145  23SM      O12            13.4652312612      -24.9818324737      -25.4342525235  MEMB      145             0.0000000000
     17964       145  23SM      C1S            12.5632286589      -24.0856501197      -21.7784621249  MEMB      145             0.0000000000
     17965       145  23SM      H1S            11.4752179632      -23.8785698774      -21.9536332086  MEMB      145             0.0000000000
     17966       145  23SM      H1T            13.0046693122      -23.1241547568      -21.4288141295  MEMB      145             0.0000000000
     17967       145  23SM      NF             11.8440617070      -24.7488314367      -19.5106778994  MEMB      145             0.0000000000
     17968       145  23SM      HNF            12.3140890100      -24.4472362117      -18.6906912735  MEMB      145             0.0000000000
     17969       145  23SM      C2S            12.6688608835      -25.1392101648      -20.6434631777  MEMB      145             0.0000000000
     17970       145  23SM      H2S            12.2856612923      -26.1072766110      -21.0429223482  MEMB      145             0.0000000000
     17971       145  23SM      C3S            14.1492749575      -25.3469649176      -20.1963997668  MEMB      145             0.0000000000
     17972       145  23SM      H3S            14.5922857517      -24.3643435950      -19.9138107912  MEMB      145             0.0000000000
     17973       145  23SM      O3             15.0324522192      -25.9507661772      -21.1376737569  MEMB      145             0.0000000000
     17974       145  23SM      HO3            14.5199682003      -26.0370131521      -21.9514110057  MEMB      145             0.0000000000
     17975       145  23SM      C4S            14.1164159027      -26.2415647148      -18.9789213185  MEMB      145             0.0000000000
     17976       145  23SM      H4S            13.7174765183      -27.2481386202      -19.1707249697  MEMB      145             0.0000000000
     17977       145  23SM      C5S            14.4920400349      -25.8920590514      -17.7322900265  MEMB      145             0.0000000000
     17978       145  23SM      H5S            14.8696304433      -24.8734492700      -17.5607365699  MEMB      145             0.0000000000
     17979       145  23SM      C6S            14.4509738934      -26.7716936978      -16.5076381920  MEMB      145             0.0000000000
     17980       145  23SM      H6S            15.4468447430      -27.2343342155      -16.3401164288  MEMB      145             0.0000000000
     17981       145  23SM      H6T            13.7227427063      -27.6067111277      -16.6309071907  MEMB      145             0.0000000000
     17982       145  23SM      C7S            14.0465827894      -25.9898747065      -15.2354606770  MEMB      145             0.0000000000
     17983       145  23SM      H7S            12.9357513556      -25.9306659883      -15.1873857090  MEMB      145             0.0000000000
     17984       145  23SM      H7T            14.4257486529      -24.9425532303      -15.2772352728  MEMB      145             0.0000000000
     17985       145  23SM      C8S            14.5540727441      -26.6040029104      -13.9114140979  MEMB      145             0.0000000000
     17986       145  23SM      H8S            15.6646788568      -26.5381759980      -13.8995149622  MEMB      145             0.0000000000
     17987       145  23SM      H8T            14.2725288694      -27.6766184932      -13.8497749391  MEMB      145             0.0000000000
     17988       145  23SM      C9S            13.9941528258      -25.8602856311      -12.6858949072  MEMB      145             0.0000000000
     17989       145  23SM      H9S            12.9617110134      -26.1850960905      -12.4631330308  MEMB      145             0.0000000000
     17990       145  23SM      H9T            13.9084255469      -24.7893824240      -12.9890806790  MEMB      145             0.0000000000
     17991       145  23SM      C10S           14.8890499060      -25.8555857345      -11.4363662944  MEMB      145             0.0000000000
     17992       145  23SM      H10S           14.7153446376      -24.8612588138      -10.9838583633  MEMB      145             0.0000000000
     17993       145  23SM      H10T           15.9642725275      -25.8722236301      -11.6990784741  MEMB      145             0.0000000000
     17994       145  23SM      C11S           14.6008155086      -26.8290331230      -10.2843897605  MEMB      145             0.0000000000
     17995       145  23SM      H11S           14.9057142560      -27.8658190273      -10.5383005532  MEMB      145             0.0000000000
     17996       145  23SM      H11T           13.5130529741      -26.8346217843      -10.0439182662  MEMB      145             0.0000000000
     17997       145  23SM      C12S           15.3733543877      -26.3184386936       -9.0559295128  MEMB      145             0.0000000000
     17998       145  23SM      H12S           15.2681947358      -25.2086396550       -9.0112091258  MEMB      145             0.0000000000
     17999       145  23SM      H12T           16.4607924394      -26.5196337526       -9.1720369741  MEMB      145             0.0000000000
     18000       145  23SM      C13S           14.8656249388      -26.8483536617       -7.7193901658  MEMB      145             0.0000000000
     18001       145  23SM      H13S           15.1365827162      -27.9184472997       -7.6039847330  MEMB      145             0.0000000000
     18002       145  23SM      H13T           13.7584183745      -26.7558722588       -7.6713094810  MEMB      145             0.0000000000
     18003       145  23SM      C14S           15.4625507830      -26.0490509085       -6.5669132851  MEMB      145             0.0000000000
     18004       145  23SM      H14S           15.1789347870      -24.9770963060       -6.6450339303  MEMB      145             0.0000000000
     18005       145  23SM      H14T           16.5697711798      -26.0954237303       -6.6450414371  MEMB      145             0.0000000000
     18006       145  23SM      C15S           15.0024841796      -26.5659328479       -5.2118540668  MEMB      145             0.0000000000
     18007       145  23SM      H15S           15.6747429704      -27.3980763389       -4.9121400756  MEMB      145             0.0000000000
     18008       145  23SM      H15T           13.9711387995      -26.9749881679       -5.3028302206  MEMB      145             0.0000000000
     18009       145  23SM      C16S           14.9846693989      -25.4701084564       -4.1412390995  MEMB      145             0.0000000000
     18010       145  23SM      H16S           13.9699935610      -25.0453702094       -4.1518800193  MEMB      145             0.0000000000
     18011       145  23SM      H16T           15.6648774751      -24.6351084923       -4.4090736410  MEMB      145             0.0000000000
     18012       145  23SM      C17S           15.2932020339      -26.0405587020       -2.7543810801  MEMB      145             0.0000000000
     18013       145  23SM      H17S           16.0987663620      -26.8013009261       -2.8627868572  MEMB      145             0.0000000000
     18014       145  23SM      H17T           14.3770694670      -26.5734840854       -2.4106606498  MEMB      145             0.0000000000
     18015       145  23SM      C18S           15.7250839873      -25.0378622379       -1.6821126907  MEMB      145             0.0000000000
     18016       145  23SM      H18S           16.7418136617      -24.6430573443       -1.8826393083  MEMB      145             0.0000000000
     18017       145  23SM      H18T           15.7392969907      -25.5495595066       -0.6950960623  MEMB      145             0.0000000000
     18018       145  23SM      H18U           15.0332299341      -24.1740903188       -1.6303127284  MEMB      145             0.0000000000
     18019       145  23SM      C1F            10.5206386338      -24.8570028730      -19.5452938737  MEMB      145             0.0000000000
     18020       145  23SM      OF              9.9448434704      -25.2250290769      -20.5486644949  MEMB      145             0.0000000000
     18021       145  23SM      C2F             9.8025376807      -24.5247590249      -18.2846594436  MEMB      145             0.0000000000
     18022       145  23SM      H2F             8.7080059844      -24.5186830475      -18.4699493952  MEMB      145             0.0000000000
     18023       145  23SM      H2G            10.0998664182      -23.4971366594      -17.9970171960  MEMB      145             0.0000000000
     18024       145  23SM      C3F            10.1344081413      -25.5408466073      -17.1672908189  MEMB      145             0.0000000000
     18025       145  23SM      H3F            11.1878011476      -25.9010297478      -17.2212544652  MEMB      145             0.0000000000
     18026       145  23SM      H3G             9.4757106176      -26.4297216833      -17.2942799713  MEMB      145             0.0000000000
     18027       145  23SM      C4F             9.9579163029      -24.9313541121      -15.7732773640  MEMB      145             0.0000000000
     18028       145  23SM      H4F            10.1456372398      -25.7056885014      -15.0012909643  MEMB      145             0.0000000000
     18029       145  23SM      H4G             8.9082368489      -24.5852944441      -15.6415434521  MEMB      145             0.0000000000
     18030       145  23SM      C5F            10.9338745806      -23.7629074666      -15.5620899107  MEMB      145             0.0000000000
     18031       145  23SM      H5F            10.5267339456      -22.8668016995      -16.0781708047  MEMB      145             0.0000000000
     18032       145  23SM      H5G            11.9208782283      -24.0013178885      -16.0135125640  MEMB      145             0.0000000000
     18033       145  23SM      C6F            11.1505723704      -23.4182135646      -14.0927869190  MEMB      145             0.0000000000
     18034       145  23SM      H6F            11.7500970077      -24.2177830457      -13.6050165070  MEMB      145             0.0000000000
     18035       145  23SM      H6G            10.1555225871      -23.4335328966      -13.6057799267  MEMB      145             0.0000000000
     18036       145  23SM      C7F            11.8196310416      -22.0425233141      -13.8856741224  MEMB      145             0.0000000000
     18037       145  23SM      H7F            11.5710544378      -21.3725696315      -14.7375633387  MEMB      145             0.0000000000
     18038       145  23SM      H7G            12.9140861917      -22.2021961570      -13.9204090269  MEMB      145             0.0000000000
     18039       145  23SM      C8F            11.4199157254      -21.3219442731      -12.5807412652  MEMB      145             0.0000000000
     18040       145  23SM      H8F            10.4899622655      -20.7573832601      -12.7285504489  MEMB      145             0.0000000000
     18041       145  23SM      H8G            12.1922223247      -20.5719839323      -12.2871560739  MEMB      145             0.0000000000
     18042       145  23SM      C9F            11.2101016216      -22.2560818914      -11.3992304436  MEMB      145             0.0000000000
     18043       145  23SM      H9F            10.7009854028      -23.2036038527      -11.6729958635  MEMB      145             0.0000000000
     18044       145  23SM      H9G            10.6041011327      -21.7922044534      -10.5938353175  MEMB      145             0.0000000000
     18045       145  23SM      C10F           12.5823449438      -22.5781886163      -10.8993306701  MEMB      145             0.0000000000
     18046       145  23SM      H10F           13.0844418914      -21.6474326037      -10.5497620586  MEMB      145             0.0000000000
     18047       145  23SM      H10G           13.1254054338      -22.9729390449      -11.7885309019  MEMB      145             0.0000000000
     18048       145  23SM      C11F           12.5921978840      -23.6436602426       -9.8390879254  MEMB      145             0.0000000000
     18049       145  23SM      H11F           13.6560033888      -23.8779986687       -9.6218566666  MEMB      145             0.0000000000
     18050       145  23SM      H11G           12.1101117567      -24.5653853932      -10.2320077163  MEMB      145             0.0000000000
     18051       145  23SM      C12F           11.9766017583      -23.2129605726       -8.5192580342  MEMB      145             0.0000000000
     18052       145  23SM      H12F           10.8670514885      -23.2286686735       -8.5763236711  MEMB      145             0.0000000000
     18053       145  23SM      H12G           12.3068625780      -22.1764224004       -8.2784263454  MEMB      145             0.0000000000
     18054       145  23SM      C13F           12.5223443588      -24.1913029074       -7.4883390776  MEMB      145             0.0000000000
     18055       145  23SM      H13F           13.6245918962      -24.0584677753       -7.4747018249  MEMB      145             0.0000000000
     18056       145  23SM      H13G           12.3016632177      -25.2199360898       -7.8578822106  MEMB      145             0.0000000000
     18057       145  23SM      C14F           11.9706399985      -24.0672103626       -6.0782585708  MEMB      145             0.0000000000
     18058       145  23SM      H14F           12.4660403283      -24.8341103266       -5.4478938307  MEMB      145             0.0000000000
     18059       145  23SM      H14G           10.8899093998      -24.3203774681       -6.1217473685  MEMB      145             0.0000000000
     18060       145  23SM      C15F           12.1435994140      -22.6935462628       -5.4299141103  MEMB      145             0.0000000000
     18061       145  23SM      H15F           11.7070508052      -21.9339108611       -6.1136800805  MEMB      145             0.0000000000
     18062       145  23SM      H15G           13.2210149212      -22.4550838042       -5.2899926153  MEMB      145             0.0000000000
     18063       145  23SM      C16F           11.4224872140      -22.6358407103       -4.0843358935  MEMB      145             0.0000000000
     18064       145  23SM      H16F           10.4439206728      -23.1642014146       -4.1512801175  MEMB      145             0.0000000000
     18065       145  23SM      H16G           11.2119576244      -21.5973602444       -3.7606041133  MEMB      145             0.0000000000
     18066       145  23SM      C17F           12.2448573129      -23.1735408261       -2.9383510791  MEMB      145             0.0000000000
     18067       145  23SM      H17F           13.1295458857      -22.5139459626       -2.7710581984  MEMB      145             0.0000000000
     18068       145  23SM      H17G           12.5973286847      -24.2038406335       -3.1268944864  MEMB      145             0.0000000000
     18069       145  23SM      C18F           11.3551571127      -23.2429310179       -1.7159087425  MEMB      145             0.0000000000
     18070       145  23SM      H18F           10.3892697540      -23.7238390975       -1.9908981032  MEMB      145             0.0000000000
     18071       145  23SM      H18G           11.1239369632      -22.2122551352       -1.3682788305  MEMB      145             0.0000000000
     18072       145  23SM      C19F           12.0509054659      -24.0668342991       -0.6482392807  MEMB      145             0.0000000000
     18073       145  23SM      H19F           13.1432006740      -24.0284847584       -0.8403285631  MEMB      145             0.0000000000
     18074       145  23SM      H19G           11.7340676800      -25.1230448574       -0.7619445400  MEMB      145             0.0000000000
     18075       145  23SM      C20F           11.7951834204      -23.4706125064        0.7269623867  MEMB      145             0.0000000000
     18076       145  23SM      H20F           10.7173255820      -23.5456548323        0.9632844993  MEMB      145             0.0000000000
     18077       145  23SM      H20G           12.0548760407      -22.3909588494        0.6505290440  MEMB      145             0.0000000000
     18078       145  23SM      C21F           12.6283338201      -24.0609232188        1.8595359170  MEMB      145             0.0000000000
     18079       145  23SM      H21F           12.8274421607      -25.1366952181        1.6253210479  MEMB      145             0.0000000000
     18080       145  23SM      H21G           12.0863863572      -24.0355845442        2.8281105265  MEMB      145             0.0000000000
     18081       145  23SM      C22F           13.9626751049      -23.3241787604        2.0107040072  MEMB      145             0.0000000000
     18082       145  23SM      H22F           14.3084614653      -22.9210159564        1.0350323548  MEMB      145             0.0000000000
     18083       145  23SM      H22G           14.6204509879      -24.1795125896        2.2173275713  MEMB      145             0.0000000000
     18084       145  23SM      C23F           14.1208163421      -22.2396790561        3.1026726029  MEMB      145             0.0000000000
     18085       145  23SM      H23F           14.1231466832      -22.6582018050        4.1314279334  MEMB      145             0.0000000000
     18086       145  23SM      H23G           13.3370698473      -21.4671863258        3.0375871487  MEMB      145             0.0000000000
     18087       145  23SM      H23H           15.0852228773      -21.6987860096        2.9802917433  MEMB      145             0.0000000000
     18088       146  DOPE      N              -6.3783936059      -25.4540203659      -18.4125893403  MEMB      146             0.0000000000
     18089       146  DOPE      HN1            -5.8453548972      -24.6621269571      -18.8292481090  MEMB      146             0.0000000000
     18090       146  DOPE      HN2            -7.3789402482      -25.3808787662      -18.7021513365  MEMB      146             0.0000000000
     18091       146  DOPE      HN3            -6.3474665772      -25.3945294914      -17.3769947382  MEMB      146             0.0000000000
     18092       146  DOPE      C12            -5.7759335745      -26.7694629636      -18.8543654749  MEMB      146             0.0000000000
     18093       146  DOPE      H12A           -5.1752619442      -27.1897209202      -18.0176248768  MEMB      146             0.0000000000
     18094       146  DOPE      H12B           -5.0984485282      -26.5804687917      -19.7096106843  MEMB      146             0.0000000000
     18095       146  DOPE      C11            -6.8921963292      -27.7299587143      -19.2625846647  MEMB      146             0.0000000000
     18096       146  DOPE      H11A           -7.5653772913      -27.2518510731      -20.0085806125  MEMB      146             0.0000000000
     18097       146  DOPE      H11B           -7.5263207165      -27.9316858135      -18.3529190606  MEMB      146             0.0000000000
     18098       146  DOPE      P              -6.3993236136      -30.2311463681      -18.9909427167  MEMB      146             0.0000000000
     18099       146  DOPE      O13            -5.7395765237      -31.3879360041      -19.6299355064  MEMB      146             0.0000000000
     18100       146  DOPE      O14            -7.8152817695      -30.3586703432      -18.5743134469  MEMB      146             0.0000000000
     18101       146  DOPE      O11            -5.5190908700      -29.7599923868      -17.7524744774  MEMB      146             0.0000000000
     18102       146  DOPE      O12            -6.3219723795      -28.9045316568      -19.8734489465  MEMB      146             0.0000000000
     18103       146  DOPE      C1             -5.1519181949      -30.7034382089      -16.7475610671  MEMB      146             0.0000000000
     18104       146  DOPE      HA             -4.3646454657      -30.2382628501      -16.1202135748  MEMB      146             0.0000000000
     18105       146  DOPE      HB             -4.7230173272      -31.6352047314      -17.1900029652  MEMB      146             0.0000000000
     18106       146  DOPE      C2             -6.3373756315      -31.0687645922      -15.8141068882  MEMB      146             0.0000000000
     18107       146  DOPE      HS             -6.9382376059      -31.8276422310      -16.3700239976  MEMB      146             0.0000000000
     18108       146  DOPE      O21            -7.1189094648      -29.8962425958      -15.5589030433  MEMB      146             0.0000000000
     18109       146  DOPE      C21            -8.3278726620      -30.1198845955      -15.1375213176  MEMB      146             0.0000000000
     18110       146  DOPE      O22            -8.9874084180      -31.1406521597      -15.2510057909  MEMB      146             0.0000000000
     18111       146  DOPE      C22            -8.7227016785      -28.9035147971      -14.2919486014  MEMB      146             0.0000000000
     18112       146  DOPE      H2R            -9.6848333927      -29.1321062417      -13.7953395351  MEMB      146             0.0000000000
     18113       146  DOPE      H2S            -8.8572610291      -28.0399794991      -14.9736186905  MEMB      146             0.0000000000
     18114       146  DOPE      C3             -5.8517186785      -31.6929448673      -14.4703400791  MEMB      146             0.0000000000
     18115       146  DOPE      HX             -4.9065527389      -32.2168895613      -14.7023646122  MEMB      146             0.0000000000
     18116       146  DOPE      HY             -6.6244754264      -32.4311012199      -14.1512859835  MEMB      146             0.0000000000
     18117       146  DOPE      O31            -5.5573847018      -30.7096489383      -13.4547254848  MEMB      146             0.0000000000
     18118       146  DOPE      C31            -5.6129669671      -31.1483645389      -12.1944471159  MEMB      146             0.0000000000
     18119       146  DOPE      O32            -5.9338803750      -32.2714999743      -11.8520582945  MEMB      146             0.0000000000
     18120       146  DOPE      C32            -5.1989832082      -30.0300100198      -11.2262725941  MEMB      146             0.0000000000
     18121       146  DOPE      H2X            -4.8607618889      -29.1798317210      -11.8422455520  MEMB      146             0.0000000000
     18122       146  DOPE      H2Y            -6.0941016271      -29.7092595236      -10.6578672467  MEMB      146             0.0000000000
     18123       146  DOPE      C23            -7.6390083258      -28.5757342490      -13.2195010021  MEMB      146             0.0000000000
     18124       146  DOPE      H3R            -6.6489485587      -28.4249234359      -13.7075775823  MEMB      146             0.0000000000
     18125       146  DOPE      H3S            -7.5548561496      -29.4211892160      -12.5080796457  MEMB      146             0.0000000000
     18126       146  DOPE      C24            -7.9486536953      -27.3199196256      -12.4106670987  MEMB      146             0.0000000000
     18127       146  DOPE      H4R            -8.5546315922      -27.5844087771      -11.5303217603  MEMB      146             0.0000000000
     18128       146  DOPE      H4S            -8.6736915734      -26.8106154079      -13.0509325615  MEMB      146             0.0000000000
     18129       146  DOPE      C25            -6.7312114378      -26.3997520368      -12.1123850159  MEMB      146             0.0000000000
     18130       146  DOPE      H5R            -7.0409627383      -25.3383340352      -12.0313998073  MEMB      146             0.0000000000
     18131       146  DOPE      H5S            -6.0084798100      -26.4430856026      -12.9567752861  MEMB      146             0.0000000000
     18132       146  DOPE      C26            -6.0063947591      -26.6130243366      -10.7724691818  MEMB      146             0.0000000000
     18133       146  DOPE      H6R            -5.2888696855      -25.7771431415      -10.6074140295  MEMB      146             0.0000000000
     18134       146  DOPE      H6S            -5.3940573810      -27.5257722039      -10.8395468906  MEMB      146             0.0000000000
     18135       146  DOPE      C27            -6.9468557082      -26.7111689224       -9.5634571905  MEMB      146             0.0000000000
     18136       146  DOPE      H7R            -7.8259226826      -27.3322916568       -9.8204189830  MEMB      146             0.0000000000
     18137       146  DOPE      H7S            -7.3242199923      -25.7030397497       -9.2926802654  MEMB      146             0.0000000000
     18138       146  DOPE      C28            -6.2933917304      -27.4081285901       -8.3656658094  MEMB      146             0.0000000000
     18139       146  DOPE      H8R            -5.6094024882      -26.6981383456       -7.8496814863  MEMB      146             0.0000000000
     18140       146  DOPE      H8S            -5.6752364091      -28.2289367863       -8.7694559936  MEMB      146             0.0000000000
     18141       146  DOPE      C29            -7.3270277931      -28.0128131931       -7.4530060936  MEMB      146             0.0000000000
     18142       146  DOPE      H9R            -7.5788657556      -29.0655966414       -7.6485085497  MEMB      146             0.0000000000
     18143       146  DOPE      C210           -7.9623157695      -27.3545437910       -6.4776210835  MEMB      146             0.0000000000
     18144       146  DOPE      H10R           -8.6926339484      -27.8872086708       -5.8502934454  MEMB      146             0.0000000000
     18145       146  DOPE      C211           -7.7389023277      -25.9066494068       -6.1394977925  MEMB      146             0.0000000000
     18146       146  DOPE      H11R           -8.7027169952      -25.3533861582       -6.1472233969  MEMB      146             0.0000000000
     18147       146  DOPE      H11S           -7.0652031233      -25.4133946104       -6.8746100875  MEMB      146             0.0000000000
     18148       146  DOPE      C212           -7.0929903585      -25.7719943287       -4.7584824592  MEMB      146             0.0000000000
     18149       146  DOPE      H12R           -6.7023180777      -24.7438247057       -4.6002665480  MEMB      146             0.0000000000
     18150       146  DOPE      H12S           -6.2167020521      -26.4434509647       -4.7064358254  MEMB      146             0.0000000000
     18151       146  DOPE      C213           -8.0526558170      -26.1154302893       -3.6238064983  MEMB      146             0.0000000000
     18152       146  DOPE      H13R           -8.8393955788      -26.8133264206       -3.9852926162  MEMB      146             0.0000000000
     18153       146  DOPE      H13S           -8.5466528640      -25.1798379506       -3.2969860927  MEMB      146             0.0000000000
     18154       146  DOPE      C214           -7.3353546962      -26.7811633578       -2.4547753021  MEMB      146             0.0000000000
     18155       146  DOPE      H14R           -6.7217866978      -26.0242485018       -1.9159215280  MEMB      146             0.0000000000
     18156       146  DOPE      H14S           -6.6944773352      -27.5405108873       -2.8903669962  MEMB      146             0.0000000000
     18157       146  DOPE      C215           -8.2495571598      -27.5253592936       -1.4902161140  MEMB      146             0.0000000000
     18158       146  DOPE      H15R           -9.0679618052      -26.7968065815       -1.4281930054  MEMB      146             0.0000000000
     18159       146  DOPE      H15S           -7.7533561427      -27.6362922754       -0.5053793350  MEMB      146             0.0000000000
     18160       146  DOPE      C216           -8.8533403099      -28.8677005372       -1.9528719468  MEMB      146             0.0000000000
     18161       146  DOPE      H16R           -8.4435695502      -29.7309749655       -1.3894423365  MEMB      146             0.0000000000
     18162       146  DOPE      H16S           -8.5948702868      -29.0043137568       -3.0289176472  MEMB      146             0.0000000000
     18163       146  DOPE      C217          -10.3867622804      -28.8424758024       -1.8795547776  MEMB      146             0.0000000000
     18164       146  DOPE      H17R          -10.8304788842      -29.4850649185       -2.6710786932  MEMB      146             0.0000000000
     18165       146  DOPE      H17S          -10.6346229645      -27.7992952693       -2.1155306027  MEMB      146             0.0000000000
     18166       146  DOPE      C218          -11.1016944649      -29.1369585284       -0.5679749461  MEMB      146             0.0000000000
     18167       146  DOPE      H18R          -10.9454422551      -30.1858178318       -0.2487188420  MEMB      146             0.0000000000
     18168       146  DOPE      H18S          -12.1832061805      -28.9790435428       -0.7334072685  MEMB      146             0.0000000000
     18169       146  DOPE      H18T          -10.8106099324      -28.4406329027        0.2457233067  MEMB      146             0.0000000000
     18170       146  DOPE      C33            -4.0877550281      -30.5154257754      -10.2646996103  MEMB      146             0.0000000000
     18171       146  DOPE      H3X            -3.3706093472      -31.1330464592      -10.8425911873  MEMB      146             0.0000000000
     18172       146  DOPE      H3Y            -4.5799466144      -31.1723592412       -9.5127878615  MEMB      146             0.0000000000
     18173       146  DOPE      C34            -3.2549084981      -29.4817967344       -9.4752735278  MEMB      146             0.0000000000
     18174       146  DOPE      H4X            -3.9102344977      -29.0365670842       -8.7086401710  MEMB      146             0.0000000000
     18175       146  DOPE      H4Y            -2.4756159383      -30.0393037655       -8.9097584596  MEMB      146             0.0000000000
     18176       146  DOPE      C35            -2.5495576212      -28.3783366988      -10.2868021942  MEMB      146             0.0000000000
     18177       146  DOPE      H5X            -3.3053925245      -27.8135388083      -10.8772981505  MEMB      146             0.0000000000
     18178       146  DOPE      H5Y            -1.8370085637      -28.8189306742      -11.0069664950  MEMB      146             0.0000000000
     18179       146  DOPE      C36            -1.7652116727      -27.3698054081       -9.4425301767  MEMB      146             0.0000000000
     18180       146  DOPE      H6X            -1.2047408183      -26.6847534607      -10.1177439172  MEMB      146             0.0000000000
     18181       146  DOPE      H6Y            -1.0323807817      -27.8833816500       -8.7864220284  MEMB      146             0.0000000000
     18182       146  DOPE      C37            -2.7464805987      -26.5807259025       -8.5899998627  MEMB      146             0.0000000000
     18183       146  DOPE      H7X            -3.5076617308      -26.1452390126       -9.2766139266  MEMB      146             0.0000000000
     18184       146  DOPE      H7Y            -3.2722808872      -27.3024469895       -7.9258082196  MEMB      146             0.0000000000
     18185       146  DOPE      C38            -2.1335343096      -25.4848369617       -7.7256614335  MEMB      146             0.0000000000
     18186       146  DOPE      H8X            -1.6421126888      -24.7245899880       -8.3697800385  MEMB      146             0.0000000000
     18187       146  DOPE      H8Y            -1.3410521223      -25.9070071235       -7.0700465729  MEMB      146             0.0000000000
     18188       146  DOPE      C39            -3.2983299133      -24.9297045208       -6.9418780295  MEMB      146             0.0000000000
     18189       146  DOPE      H9X            -3.8449088058      -24.1056380092       -7.4146678694  MEMB      146             0.0000000000
     18190       146  DOPE      C310           -3.7637458776      -25.4447626301       -5.7995808242  MEMB      146             0.0000000000
     18191       146  DOPE      H10X           -4.6508682703      -25.0012076762       -5.3277618212  MEMB      146             0.0000000000
     18192       146  DOPE      C311           -3.1656743906      -26.6577916367       -5.1505302901  MEMB      146             0.0000000000
     18193       146  DOPE      H11X           -2.3327396497      -27.0430753211       -5.7706503427  MEMB      146             0.0000000000
     18194       146  DOPE      H11Y           -2.7179744638      -26.3720128188       -4.1731163591  MEMB      146             0.0000000000
     18195       146  DOPE      C312           -4.0560407726      -27.8921665601       -4.9523524741  MEMB      146             0.0000000000
     18196       146  DOPE      H12X           -3.5432461282      -28.7985363403       -5.3432110231  MEMB      146             0.0000000000
     18197       146  DOPE      H12Y           -5.0075674773      -27.8095520296       -5.5189398245  MEMB      146             0.0000000000
     18198       146  DOPE      C313           -4.3110211937      -28.1206717905       -3.4698004388  MEMB      146             0.0000000000
     18199       146  DOPE      H13X           -3.3675107631      -28.2151952720       -2.8964091105  MEMB      146             0.0000000000
     18200       146  DOPE      H13Y           -4.7815844383      -27.1884372540       -3.0877952517  MEMB      146             0.0000000000
     18201       146  DOPE      C314           -5.1998374994      -29.3421437604       -3.2227547087  MEMB      146             0.0000000000
     18202       146  DOPE      H14X           -6.0032041744      -29.4167829607       -3.9889914941  MEMB      146             0.0000000000
     18203       146  DOPE      H14Y           -5.7077604924      -29.1507920556       -2.2552748684  MEMB      146             0.0000000000
     18204       146  DOPE      C315           -4.4567682042      -30.6668733230       -3.0995425272  MEMB      146             0.0000000000
     18205       146  DOPE      H15X           -3.4926179366      -30.4959276438       -2.5716961789  MEMB      146             0.0000000000
     18206       146  DOPE      H15Y           -4.2244262588      -31.0661291099       -4.1099864174  MEMB      146             0.0000000000
     18207       146  DOPE      C316           -5.2850225651      -31.6678654234       -2.2869675249  MEMB      146             0.0000000000
     18208       146  DOPE      H16X           -4.8112741395      -32.6688134889       -2.3648000145  MEMB      146             0.0000000000
     18209       146  DOPE      H16Y           -6.3059367616      -31.7579894129       -2.7170105099  MEMB      146             0.0000000000
     18210       146  DOPE      C317           -5.3839903833      -31.2570635590       -0.8098277333  MEMB      146             0.0000000000
     18211       146  DOPE      H17X           -4.3571275346      -31.0565483707       -0.4341412507  MEMB      146             0.0000000000
     18212       146  DOPE      H17Y           -5.9445196448      -30.3050205134       -0.6924038483  MEMB      146             0.0000000000
     18213       146  DOPE      C318           -6.0791811701      -32.2884038697        0.0670520517  MEMB      146             0.0000000000
     18214       146  DOPE      H18X           -7.1101756268      -32.4726521707       -0.3093132213  MEMB      146             0.0000000000
     18215       146  DOPE      H18Y           -5.5257221825      -33.2494041816        0.0853071733  MEMB      146             0.0000000000
     18216       146  DOPE      H18Z           -6.1374947713      -31.8964794044        1.1059085935  MEMB      146             0.0000000000
     18217       147  DOPE      N               4.8285618281      -30.3473766103      -20.0157341499  MEMB      147             0.0000000000
     18218       147  DOPE      HN1             5.6758760318      -29.7368308103      -20.0573313855  MEMB      147             0.0000000000
     18219       147  DOPE      HN2             4.7110454767      -30.7764183285      -19.0808843968  MEMB      147             0.0000000000
     18220       147  DOPE      HN3             4.9692495736      -31.0755727898      -20.7560620683  MEMB      147             0.0000000000
     18221       147  DOPE      C12             3.6181217687      -29.5651211370      -20.4188609994  MEMB      147             0.0000000000
     18222       147  DOPE      H12A            3.4892389506      -29.6917504288      -21.5146406028  MEMB      147             0.0000000000
     18223       147  DOPE      H12B            3.8045069901      -28.4970499322      -20.1665107080  MEMB      147             0.0000000000
     18224       147  DOPE      C11             2.3646657722      -30.0525701698      -19.7064225455  MEMB      147             0.0000000000
     18225       147  DOPE      H11A            2.5858893884      -30.1043552236      -18.6114685332  MEMB      147             0.0000000000
     18226       147  DOPE      H11B            2.0701086891      -31.0740838402      -20.0166773723  MEMB      147             0.0000000000
     18227       147  DOPE      P               0.8254709397      -28.1729397502      -18.9131370885  MEMB      147             0.0000000000
     18228       147  DOPE      O13            -0.4830693257      -27.6156027118      -19.2849429432  MEMB      147             0.0000000000
     18229       147  DOPE      O14             1.9788900584      -27.2971048905      -18.6192676122  MEMB      147             0.0000000000
     18230       147  DOPE      O11             0.6899093459      -29.2590667730      -17.7787860948  MEMB      147             0.0000000000
     18231       147  DOPE      O12             1.2954875174      -29.1669196998      -20.0438279424  MEMB      147             0.0000000000
     18232       147  DOPE      C1             -0.5098155062      -29.3623208774      -17.0478663122  MEMB      147             0.0000000000
     18233       147  DOPE      HA             -0.4814048417      -30.3044166059      -16.4560684825  MEMB      147             0.0000000000
     18234       147  DOPE      HB             -1.4108243367      -29.4043027395      -17.7058591013  MEMB      147             0.0000000000
     18235       147  DOPE      C2             -0.6234606820      -28.1757969849      -16.0777155568  MEMB      147             0.0000000000
     18236       147  DOPE      HS             -0.5423069548      -27.2321298889      -16.6637898245  MEMB      147             0.0000000000
     18237       147  DOPE      O21             0.4384599650      -28.3033574657      -15.1052929462  MEMB      147             0.0000000000
     18238       147  DOPE      C21             0.9398447411      -27.1460964725      -14.7015772785  MEMB      147             0.0000000000
     18239       147  DOPE      O22             0.4493447211      -26.0494681765      -14.8986551208  MEMB      147             0.0000000000
     18240       147  DOPE      C22             2.2281660341      -27.4070046700      -13.9013959253  MEMB      147             0.0000000000
     18241       147  DOPE      H2R             2.9546734854      -27.8726680541      -14.6008455215  MEMB      147             0.0000000000
     18242       147  DOPE      H2S             2.0060153032      -28.1306252459      -13.0934348025  MEMB      147             0.0000000000
     18243       147  DOPE      C3             -2.0158108926      -28.2201048568      -15.4359313219  MEMB      147             0.0000000000
     18244       147  DOPE      HX             -2.7699447672      -27.8504316362      -16.1652803200  MEMB      147             0.0000000000
     18245       147  DOPE      HY             -1.9885799144      -27.5094148674      -14.5772720004  MEMB      147             0.0000000000
     18246       147  DOPE      O31            -2.2847330890      -29.5998721434      -15.1029108155  MEMB      147             0.0000000000
     18247       147  DOPE      C31            -2.4956828163      -29.7659461010      -13.8152608977  MEMB      147             0.0000000000
     18248       147  DOPE      O32            -2.9430083854      -28.9141517365      -13.0743120404  MEMB      147             0.0000000000
     18249       147  DOPE      C32            -2.0503979738      -31.1522197658      -13.3664790855  MEMB      147             0.0000000000
     18250       147  DOPE      H2X            -2.9834994346      -31.6436630926      -13.0386800261  MEMB      147             0.0000000000
     18251       147  DOPE      H2Y            -1.6503176327      -31.6986602035      -14.2409703503  MEMB      147             0.0000000000
     18252       147  DOPE      C23             2.8438842520      -26.1191230212      -13.2881912011  MEMB      147             0.0000000000
     18253       147  DOPE      H3R             2.2552481281      -25.7913682559      -12.4050819171  MEMB      147             0.0000000000
     18254       147  DOPE      H3S             2.7750611363      -25.2999321828      -14.0360853929  MEMB      147             0.0000000000
     18255       147  DOPE      C24             4.3367425206      -26.2468097158      -12.9208216573  MEMB      147             0.0000000000
     18256       147  DOPE      H4R             4.7079741475      -25.2402717176      -12.6211500154  MEMB      147             0.0000000000
     18257       147  DOPE      H4S             4.9004051174      -26.5402046193      -13.8358079958  MEMB      147             0.0000000000
     18258       147  DOPE      C25             4.6529104648      -27.2480028890      -11.7940675899  MEMB      147             0.0000000000
     18259       147  DOPE      H5R             5.7524690451      -27.2601100273      -11.6145458972  MEMB      147             0.0000000000
     18260       147  DOPE      H5S             4.3556748045      -28.2693124416      -12.1253279117  MEMB      147             0.0000000000
     18261       147  DOPE      C26             3.9548409028      -26.9435514369      -10.4581613324  MEMB      147             0.0000000000
     18262       147  DOPE      H6R             4.2438569593      -27.7232441614       -9.7172933099  MEMB      147             0.0000000000
     18263       147  DOPE      H6S             2.8570772483      -27.0191533619      -10.6146261193  MEMB      147             0.0000000000
     18264       147  DOPE      C27             4.2806791141      -25.5627700207       -9.8654731763  MEMB      147             0.0000000000
     18265       147  DOPE      H7R             3.8565276030      -24.7811837440      -10.5311191815  MEMB      147             0.0000000000
     18266       147  DOPE      H7S             5.3857365157      -25.4325880887       -9.8582954171  MEMB      147             0.0000000000
     18267       147  DOPE      C28             3.7472385134      -25.3747332282       -8.4287242127  MEMB      147             0.0000000000
     18268       147  DOPE      H8R             4.1709635112      -24.4336458314       -8.0113918020  MEMB      147             0.0000000000
     18269       147  DOPE      H8S             4.1217175396      -26.2188663457       -7.8052239883  MEMB      147             0.0000000000
     18270       147  DOPE      C29             2.2402359649      -25.3177423291       -8.4270027565  MEMB      147             0.0000000000
     18271       147  DOPE      H9R             1.7670401388      -25.7685741513       -9.3115670303  MEMB      147             0.0000000000
     18272       147  DOPE      C210            1.4292189802      -24.8911685300       -7.4451405056  MEMB      147             0.0000000000
     18273       147  DOPE      H10R            0.3513871910      -24.9202706697       -7.6307797453  MEMB      147             0.0000000000
     18274       147  DOPE      C211            1.7862633812      -24.3623556283       -6.0819090785  MEMB      147             0.0000000000
     18275       147  DOPE      H11R            0.8623752567      -23.9923800055       -5.5819397497  MEMB      147             0.0000000000
     18276       147  DOPE      H11S            2.4772874885      -23.4936433080       -6.1593387462  MEMB      147             0.0000000000
     18277       147  DOPE      C212            2.4050228659      -25.4425114633       -5.1732997601  MEMB      147             0.0000000000
     18278       147  DOPE      H12R            2.4682898334      -25.0692413814       -4.1275286890  MEMB      147             0.0000000000
     18279       147  DOPE      H12S            3.4543037319      -25.6053063536       -5.5168728065  MEMB      147             0.0000000000
     18280       147  DOPE      C213            1.6984223152      -26.8200827875       -5.1962214281  MEMB      147             0.0000000000
     18281       147  DOPE      H13R            2.4310253077      -27.5274039806       -4.7909172448  MEMB      147             0.0000000000
     18282       147  DOPE      H13S            1.5198027703      -27.1645229775       -6.2355369416  MEMB      147             0.0000000000
     18283       147  DOPE      C214            0.4035563970      -26.9608211069       -4.3690680206  MEMB      147             0.0000000000
     18284       147  DOPE      H14R           -0.3149004482      -26.2176347175       -4.7850411260  MEMB      147             0.0000000000
     18285       147  DOPE      H14S            0.5847995004      -26.6851206045       -3.3111706345  MEMB      147             0.0000000000
     18286       147  DOPE      C215           -0.2481315549      -28.3648604872       -4.4646089096  MEMB      147             0.0000000000
     18287       147  DOPE      H15R            0.1064359195      -28.8861895582       -5.3801114127  MEMB      147             0.0000000000
     18288       147  DOPE      H15S           -1.3362135886      -28.2381898059       -4.5934031453  MEMB      147             0.0000000000
     18289       147  DOPE      C216           -0.1851465962      -29.3141575429       -3.2529671405  MEMB      147             0.0000000000
     18290       147  DOPE      H16R            0.7867302229      -29.8295165651       -3.1762343484  MEMB      147             0.0000000000
     18291       147  DOPE      H16S           -0.9413707835      -30.1171561421       -3.4315591985  MEMB      147             0.0000000000
     18292       147  DOPE      C217           -0.4881050287      -28.7018101660       -1.8853114858  MEMB      147             0.0000000000
     18293       147  DOPE      H17R           -1.3195612682      -27.9693032906       -1.9613016894  MEMB      147             0.0000000000
     18294       147  DOPE      H17S            0.4143093659      -28.1555255241       -1.5262524345  MEMB      147             0.0000000000
     18295       147  DOPE      C218           -0.8563619307      -29.8145559305       -0.9052761210  MEMB      147             0.0000000000
     18296       147  DOPE      H18R            0.0044955919      -30.5135061763       -0.8077587542  MEMB      147             0.0000000000
     18297       147  DOPE      H18S           -1.7300438376      -30.3867222084       -1.2828158977  MEMB      147             0.0000000000
     18298       147  DOPE      H18T           -1.1312994798      -29.4356705106        0.0968141213  MEMB      147             0.0000000000
     18299       147  DOPE      C33            -0.9941998509      -31.1625117142      -12.2212119669  MEMB      147             0.0000000000
     18300       147  DOPE      H3X            -0.7469631654      -32.2248238457      -11.9950623414  MEMB      147             0.0000000000
     18301       147  DOPE      H3Y            -1.3866558709      -30.7438260528      -11.2756044105  MEMB      147             0.0000000000
     18302       147  DOPE      C34             0.3051434863      -30.4409873199      -12.5863702358  MEMB      147             0.0000000000
     18303       147  DOPE      H4X             0.7019937208      -30.9266201107      -13.5090704151  MEMB      147             0.0000000000
     18304       147  DOPE      H4Y             0.1032433427      -29.3774287146      -12.8301712374  MEMB      147             0.0000000000
     18305       147  DOPE      C35             1.4019328672      -30.5288799685      -11.5109009943  MEMB      147             0.0000000000
     18306       147  DOPE      H5X             2.3737456411      -30.4254800427      -12.0526526861  MEMB      147             0.0000000000
     18307       147  DOPE      H5Y             1.3952679866      -31.5328685923      -11.0406230242  MEMB      147             0.0000000000
     18308       147  DOPE      C36             1.4232412796      -29.4101184894      -10.4542824454  MEMB      147             0.0000000000
     18309       147  DOPE      H6X             0.9182236414      -28.4982592816      -10.8402065800  MEMB      147             0.0000000000
     18310       147  DOPE      H6Y             2.4954431785      -29.1461253558      -10.3047898569  MEMB      147             0.0000000000
     18311       147  DOPE      C37             0.8925785450      -29.7666450690       -9.0538235444  MEMB      147             0.0000000000
     18312       147  DOPE      H7X             1.1294125773      -28.9074599369       -8.3809304895  MEMB      147             0.0000000000
     18313       147  DOPE      H7Y            -0.2135779676      -29.8610728957       -9.0914026396  MEMB      147             0.0000000000
     18314       147  DOPE      C38             1.4622947903      -31.0568293718       -8.4223915410  MEMB      147             0.0000000000
     18315       147  DOPE      H8X             0.8725950856      -31.9127758417       -8.8190058108  MEMB      147             0.0000000000
     18316       147  DOPE      H8Y             1.2361005589      -31.0139080430       -7.3324884387  MEMB      147             0.0000000000
     18317       147  DOPE      C39             2.9319964254      -31.3165693047       -8.6599249061  MEMB      147             0.0000000000
     18318       147  DOPE      H9X             3.1569829615      -31.9046058299       -9.5623287199  MEMB      147             0.0000000000
     18319       147  DOPE      C310            3.9514956523      -30.8869032737       -7.8991482351  MEMB      147             0.0000000000
     18320       147  DOPE      H10X            4.9830872387      -31.1736586034       -8.1582928644  MEMB      147             0.0000000000
     18321       147  DOPE      C311            3.7928960509      -30.0539257934       -6.6600036802  MEMB      147             0.0000000000
     18322       147  DOPE      H11X            4.6999628060      -29.4335745818       -6.4943484656  MEMB      147             0.0000000000
     18323       147  DOPE      H11Y            2.9480468919      -29.3354680661       -6.7804258565  MEMB      147             0.0000000000
     18324       147  DOPE      C312            3.5079480496      -30.9122441470       -5.4189386612  MEMB      147             0.0000000000
     18325       147  DOPE      H12X            4.3569624662      -31.5809157705       -5.1719237889  MEMB      147             0.0000000000
     18326       147  DOPE      H12Y            2.6311557357      -31.5727380522       -5.6238728949  MEMB      147             0.0000000000
     18327       147  DOPE      C313            3.1393043051      -30.0427912896       -4.2136412472  MEMB      147             0.0000000000
     18328       147  DOPE      H13X            2.2236553069      -29.4995309377       -4.5190758279  MEMB      147             0.0000000000
     18329       147  DOPE      H13Y            2.8830615102      -30.6998698061       -3.3600640597  MEMB      147             0.0000000000
     18330       147  DOPE      C314            4.1876439376      -29.0069023759       -3.7782554807  MEMB      147             0.0000000000
     18331       147  DOPE      H14X            4.3987335252      -28.3140703015       -4.6230251363  MEMB      147             0.0000000000
     18332       147  DOPE      H14Y            5.1246975784      -29.5359826476       -3.5327592862  MEMB      147             0.0000000000
     18333       147  DOPE      C315            3.7812653515      -28.1489201726       -2.5664900058  MEMB      147             0.0000000000
     18334       147  DOPE      H15X            2.9383097066      -27.4705946095       -2.8121325809  MEMB      147             0.0000000000
     18335       147  DOPE      H15Y            4.6552359390      -27.5145911803       -2.2903265589  MEMB      147             0.0000000000
     18336       147  DOPE      C316            3.3664331522      -28.9626001592       -1.3484413390  MEMB      147             0.0000000000
     18337       147  DOPE      H16X            4.1594137452      -29.7196110046       -1.1524222878  MEMB      147             0.0000000000
     18338       147  DOPE      H16Y            2.4172742129      -29.5159035518       -1.5238774557  MEMB      147             0.0000000000
     18339       147  DOPE      C317            3.2201642517      -28.1024662048       -0.1006173750  MEMB      147             0.0000000000
     18340       147  DOPE      H17X            4.1153001475      -27.4469194016        0.0038546249  MEMB      147             0.0000000000
     18341       147  DOPE      H17Y            2.3216485015      -27.4434338816       -0.1415394451  MEMB      147             0.0000000000
     18342       147  DOPE      C318            3.1299271364      -29.0268398166        1.0880889552  MEMB      147             0.0000000000
     18343       147  DOPE      H18X            3.2629936326      -28.4671537282        2.0349112225  MEMB      147             0.0000000000
     18344       147  DOPE      H18Y            2.1568712254      -29.5536400558        1.1005661549  MEMB      147             0.0000000000
     18345       147  DOPE      H18Z            3.9182549039      -29.8042730825        1.0224395476  MEMB      147             0.0000000000
     18346       148  CHL1      C3            -12.4296251329       26.8597505143      -17.3188500191  MEMB      148             0.0000000000
     18347       148  CHL1      H3            -13.3477853817       27.2608597349      -16.8245957707  MEMB      148             0.0000000000
     18348       148  CHL1      O3            -12.6744831494       26.9269550680      -18.7171143343  MEMB      148             0.0000000000
     18349       148  CHL1      H3'           -11.8121029578       27.0459524750      -19.1430227041  MEMB      148             0.0000000000
     18350       148  CHL1      C4            -11.2016577844       27.6870426534      -16.8971099466  MEMB      148             0.0000000000
     18351       148  CHL1      H4A           -10.2779157072       27.1857258570      -17.2576434070  MEMB      148             0.0000000000
     18352       148  CHL1      H4B           -11.2474012906       28.6877532274      -17.3800415621  MEMB      148             0.0000000000
     18353       148  CHL1      C5            -11.1976522626       27.7746502217      -15.3833845306  MEMB      148             0.0000000000
     18354       148  CHL1      C6            -11.3080354109       28.9687661629      -14.7786693962  MEMB      148             0.0000000000
     18355       148  CHL1      H6            -11.3033975255       29.8837979270      -15.3901813978  MEMB      148             0.0000000000
     18356       148  CHL1      C7            -11.4476123308       29.1548794719      -13.2968910914  MEMB      148             0.0000000000
     18357       148  CHL1      H7A           -10.7866819435       29.9647842717      -12.9219951030  MEMB      148             0.0000000000
     18358       148  CHL1      H7B           -12.4941718561       29.4680545469      -13.0851680290  MEMB      148             0.0000000000
     18359       148  CHL1      C8            -11.1778073724       27.8630418803      -12.4876361885  MEMB      148             0.0000000000
     18360       148  CHL1      H8            -10.0779851466       27.7485368617      -12.3717137033  MEMB      148             0.0000000000
     18361       148  CHL1      C14           -11.8514181954       27.9859252991      -11.1308013774  MEMB      148             0.0000000000
     18362       148  CHL1      H14           -12.9533207166       28.0078489456      -11.3374740769  MEMB      148             0.0000000000
     18363       148  CHL1      C15           -11.5854685688       29.2506295800      -10.3084149278  MEMB      148             0.0000000000
     18364       148  CHL1      H15A          -10.5023229946       29.4505418234      -10.3559675544  MEMB      148             0.0000000000
     18365       148  CHL1      H15B          -12.1402686071       30.1329389574      -10.6826855295  MEMB      148             0.0000000000
     18366       148  CHL1      C16           -11.9923868380       28.8523028463       -8.8838259277  MEMB      148             0.0000000000
     18367       148  CHL1      H16A          -11.1279831881       29.0231854968       -8.2056021937  MEMB      148             0.0000000000
     18368       148  CHL1      H16B          -12.8535291192       29.4483370567       -8.5216513558  MEMB      148             0.0000000000
     18369       148  CHL1      C17           -12.3521722930       27.3318479421       -8.9309668735  MEMB      148             0.0000000000
     18370       148  CHL1      H17           -13.4468820024       27.2681627178       -9.1385705436  MEMB      148             0.0000000000
     18371       148  CHL1      C13           -11.6335660452       26.8121240459      -10.1916991488  MEMB      148             0.0000000000
     18372       148  CHL1      C18           -10.1231018103       26.6336485034       -9.8645901332  MEMB      148             0.0000000000
     18373       148  CHL1      H18A           -9.9743902294       25.7834206836       -9.1738641806  MEMB      148             0.0000000000
     18374       148  CHL1      H18B           -9.5264520553       26.4212577313      -10.7718989430  MEMB      148             0.0000000000
     18375       148  CHL1      H18C           -9.7014102318       27.5317834667       -9.3752416661  MEMB      148             0.0000000000
     18376       148  CHL1      C12           -12.2412860039       25.5865157227      -10.8866094324  MEMB      148             0.0000000000
     18377       148  CHL1      H12A          -12.0851606338       24.6919745571      -10.2766625097  MEMB      148             0.0000000000
     18378       148  CHL1      H12B          -13.3373205613       25.7327214985      -10.9985648887  MEMB      148             0.0000000000
     18379       148  CHL1      C11           -11.6220949596       25.3578689668      -12.2774577515  MEMB      148             0.0000000000
     18380       148  CHL1      H11A          -10.5520688541       25.0959066780      -12.1472577281  MEMB      148             0.0000000000
     18381       148  CHL1      H11B          -12.1204194045       24.4846954847      -12.7464143398  MEMB      148             0.0000000000
     18382       148  CHL1      C9            -11.7443020772       26.6169739856      -13.1782638022  MEMB      148             0.0000000000
     18383       148  CHL1      H9            -12.8434641893       26.8105545822      -13.2502659478  MEMB      148             0.0000000000
     18384       148  CHL1      C10           -11.2581527734       26.4191684544      -14.6352697967  MEMB      148             0.0000000000
     18385       148  CHL1      C19            -9.8206626673       25.8483964939      -14.6145689487  MEMB      148             0.0000000000
     18386       148  CHL1      H19A           -9.8122269486       24.8323430475      -14.1686888248  MEMB      148             0.0000000000
     18387       148  CHL1      H19B           -9.4063308371       25.7504794545      -15.6391863020  MEMB      148             0.0000000000
     18388       148  CHL1      H19C           -9.1526162742       26.4919496063      -14.0106301541  MEMB      148             0.0000000000
     18389       148  CHL1      C1            -12.2062254537       25.3836212662      -15.3234869405  MEMB      148             0.0000000000
     18390       148  CHL1      H1A           -11.9569588496       24.3562473166      -14.9777043346  MEMB      148             0.0000000000
     18391       148  CHL1      H1B           -13.2471305419       25.5989535373      -14.9953153059  MEMB      148             0.0000000000
     18392       148  CHL1      C2            -12.2151115964       25.4162238881      -16.8583487652  MEMB      148             0.0000000000
     18393       148  CHL1      H2A           -13.0226843284       24.7603567091      -17.2473155012  MEMB      148             0.0000000000
     18394       148  CHL1      H2B           -11.2485122679       25.0282132239      -17.2502275720  MEMB      148             0.0000000000
     18395       148  CHL1      C20           -12.0902897955       26.6097691686       -7.6071656547  MEMB      148             0.0000000000
     18396       148  CHL1      H20           -10.9882489460       26.5346814966       -7.4550046630  MEMB      148             0.0000000000
     18397       148  CHL1      C21           -12.6831780195       25.1832030079       -7.6063660535  MEMB      148             0.0000000000
     18398       148  CHL1      H21A          -12.6397647313       24.7516935162       -6.5837417390  MEMB      148             0.0000000000
     18399       148  CHL1      H21B          -12.1052190526       24.5150650606       -8.2648466161  MEMB      148             0.0000000000
     18400       148  CHL1      H21C          -13.7435040870       25.1960960232       -7.9337151123  MEMB      148             0.0000000000
     18401       148  CHL1      C22           -12.6274399133       27.3517763035       -6.3677298198  MEMB      148             0.0000000000
     18402       148  CHL1      H22A          -12.6737184151       28.4523137539       -6.4984461798  MEMB      148             0.0000000000
     18403       148  CHL1      H22B          -13.6604106042       27.0034585178       -6.1510851461  MEMB      148             0.0000000000
     18404       148  CHL1      C23           -11.7099641496       27.0818591311       -5.1746887646  MEMB      148             0.0000000000
     18405       148  CHL1      H23A          -11.4471963045       26.0015664798       -5.1417989094  MEMB      148             0.0000000000
     18406       148  CHL1      H23B          -10.7627471282       27.6517639819       -5.3212676061  MEMB      148             0.0000000000
     18407       148  CHL1      C24           -12.3544629199       27.4826336925       -3.8546316897  MEMB      148             0.0000000000
     18408       148  CHL1      H24A          -12.7200696728       28.5312576333       -3.9346167708  MEMB      148             0.0000000000
     18409       148  CHL1      H24B          -13.2395057179       26.8382472770       -3.6592488613  MEMB      148             0.0000000000
     18410       148  CHL1      C25           -11.3660358975       27.3830774517       -2.6847103014  MEMB      148             0.0000000000
     18411       148  CHL1      H25           -10.4586743972       27.9685151534       -2.9529379740  MEMB      148             0.0000000000
     18412       148  CHL1      C26           -11.9836972412       28.0006624875       -1.4399623951  MEMB      148             0.0000000000
     18413       148  CHL1      H26A          -12.8993211474       27.4476668005       -1.1557104073  MEMB      148             0.0000000000
     18414       148  CHL1      H26B          -11.2824923523       27.9994278402       -0.5810759211  MEMB      148             0.0000000000
     18415       148  CHL1      H26C          -12.2751631836       29.0468816956       -1.6645500455  MEMB      148             0.0000000000
     18416       148  CHL1      C27           -10.9079541113       25.9519944590       -2.4045505774  MEMB      148             0.0000000000
     18417       148  CHL1      H27A          -10.4088224102       25.9037043042       -1.4134675616  MEMB      148             0.0000000000
     18418       148  CHL1      H27B          -11.7774151540       25.2703790128       -2.3920659075  MEMB      148             0.0000000000
     18419       148  CHL1      H27C          -10.1992241956       25.6077041551       -3.1845810464  MEMB      148             0.0000000000
     18420       149  DOPE      N               4.7516291798       28.3199406328      -18.0204577257  MEMB      149             0.0000000000
     18421       149  DOPE      HN1             4.2398767912       29.1514753206      -18.3710903144  MEMB      149             0.0000000000
     18422       149  DOPE      HN2             4.2333405757       27.7838821702      -17.3032902342  MEMB      149             0.0000000000
     18423       149  DOPE      HN3             5.6287733695       28.7103705624      -17.5991149466  MEMB      149             0.0000000000
     18424       149  DOPE      C12             5.2451431934       27.5073699747      -19.1911309375  MEMB      149             0.0000000000
     18425       149  DOPE      H12A            5.0063158550       28.0730459200      -20.1162865486  MEMB      149             0.0000000000
     18426       149  DOPE      H12B            4.7462899116       26.5202412218      -19.2231632274  MEMB      149             0.0000000000
     18427       149  DOPE      C11             6.7634938719       27.3911931873      -19.0717486032  MEMB      149             0.0000000000
     18428       149  DOPE      H11A            7.2107269693       27.0083713313      -20.0204255422  MEMB      149             0.0000000000
     18429       149  DOPE      H11B            7.0253033524       26.6722926584      -18.2611711407  MEMB      149             0.0000000000
     18430       149  DOPE      P               7.4772269286       29.8695724138      -19.6747946342  MEMB      149             0.0000000000
     18431       149  DOPE      O13             6.6732929891       30.9520667071      -19.0689622395  MEMB      149             0.0000000000
     18432       149  DOPE      O14             7.0973190700       29.4208863531      -21.0315112533  MEMB      149             0.0000000000
     18433       149  DOPE      O11             9.0412352088       30.1143892773      -19.5558600736  MEMB      149             0.0000000000
     18434       149  DOPE      O12             7.2941518146       28.6503343963      -18.6986331152  MEMB      149             0.0000000000
     18435       149  DOPE      C1              9.9054341918       28.9839335543      -19.7700197732  MEMB      149             0.0000000000
     18436       149  DOPE      HA             10.8716245108       29.3522272714      -20.1782437936  MEMB      149             0.0000000000
     18437       149  DOPE      HB              9.4912832720       28.2924269574      -20.5428422169  MEMB      149             0.0000000000
     18438       149  DOPE      C2             10.2040478247       28.1870767289      -18.4591517788  MEMB      149             0.0000000000
     18439       149  DOPE      HS              9.2619864905       28.0570415428      -17.8808651307  MEMB      149             0.0000000000
     18440       149  DOPE      O21            11.2204092711       28.8634852333      -17.6953987192  MEMB      149             0.0000000000
     18441       149  DOPE      C21            10.7199200518       29.6486591373      -16.7564000906  MEMB      149             0.0000000000
     18442       149  DOPE      O22             9.5486136215       29.8152639859      -16.4811545468  MEMB      149             0.0000000000
     18443       149  DOPE      C22            11.8395157762       30.2904356843      -15.9545086526  MEMB      149             0.0000000000
     18444       149  DOPE      H2R            11.4325407792       31.2369553456      -15.5356027197  MEMB      149             0.0000000000
     18445       149  DOPE      H2S            12.6901623606       30.5112494807      -16.6206018340  MEMB      149             0.0000000000
     18446       149  DOPE      C3             10.6547215118       26.7253353563      -18.7361693476  MEMB      149             0.0000000000
     18447       149  DOPE      HX             11.4508513467       26.7602468668      -19.5095034386  MEMB      149             0.0000000000
     18448       149  DOPE      HY              9.7911866884       26.1629472702      -19.1591992698  MEMB      149             0.0000000000
     18449       149  DOPE      O31            11.1880960459       26.0780162617      -17.5622851802  MEMB      149             0.0000000000
     18450       149  DOPE      C31            10.2775077097       25.6939481787      -16.6446984980  MEMB      149             0.0000000000
     18451       149  DOPE      O32             9.0731556750       25.8235669772      -16.7748825790  MEMB      149             0.0000000000
     18452       149  DOPE      C32            11.0413134835       25.2227978542      -15.4030696297  MEMB      149             0.0000000000
     18453       149  DOPE      H2X            11.6183040813       24.3275030090      -15.7198217150  MEMB      149             0.0000000000
     18454       149  DOPE      H2Y            11.7453883349       26.0366821855      -15.1453341419  MEMB      149             0.0000000000
     18455       149  DOPE      C23            12.2519753843       29.3832164004      -14.7815957878  MEMB      149             0.0000000000
     18456       149  DOPE      H3R            13.2768902623       29.6290540722      -14.4320894863  MEMB      149             0.0000000000
     18457       149  DOPE      H3S            12.2731918870       28.3084903973      -15.0711692793  MEMB      149             0.0000000000
     18458       149  DOPE      C24            11.2747491914       29.5955491612      -13.6297068822  MEMB      149             0.0000000000
     18459       149  DOPE      H4R            10.3052520298       29.1671377960      -13.9438156329  MEMB      149             0.0000000000
     18460       149  DOPE      H4S            11.0724891941       30.6812449212      -13.4961920665  MEMB      149             0.0000000000
     18461       149  DOPE      C25            11.7889428400       29.0227654489      -12.3058856124  MEMB      149             0.0000000000
     18462       149  DOPE      H5R            12.5828357617       28.2682737130      -12.5117152238  MEMB      149             0.0000000000
     18463       149  DOPE      H5S            10.9750066132       28.4984247891      -11.7690323052  MEMB      149             0.0000000000
     18464       149  DOPE      C26            12.3275269289       30.1548452923      -11.4223934860  MEMB      149             0.0000000000
     18465       149  DOPE      H6R            12.2503041227       31.1024398348      -12.0042134666  MEMB      149             0.0000000000
     18466       149  DOPE      H6S            13.4033695681       30.0252758240      -11.2095769488  MEMB      149             0.0000000000
     18467       149  DOPE      C27            11.5513123310       30.4526976977      -10.1414087101  MEMB      149             0.0000000000
     18468       149  DOPE      H7R            10.4752957684       30.5371809793      -10.3948531074  MEMB      149             0.0000000000
     18469       149  DOPE      H7S            11.8956957048       31.4648245000       -9.8189156922  MEMB      149             0.0000000000
     18470       149  DOPE      C28            11.7266586801       29.4578812907       -8.9892346993  MEMB      149             0.0000000000
     18471       149  DOPE      H8R            12.7825437350       29.1516483410       -8.8655264402  MEMB      149             0.0000000000
     18472       149  DOPE      H8S            11.1629744657       28.5347234523       -9.2310006070  MEMB      149             0.0000000000
     18473       149  DOPE      C29            11.1915754306       30.1671377709       -7.7685853812  MEMB      149             0.0000000000
     18474       149  DOPE      H9R            10.0964816287       30.2650039442       -7.7395191736  MEMB      149             0.0000000000
     18475       149  DOPE      C210           11.8963048859       30.5799512811       -6.7013181609  MEMB      149             0.0000000000
     18476       149  DOPE      H10R           11.3696352689       31.1483892114       -5.9213233931  MEMB      149             0.0000000000
     18477       149  DOPE      C211           13.3810806150       30.4189153537       -6.4824293285  MEMB      149             0.0000000000
     18478       149  DOPE      H11R           13.9081127584       30.5464653987       -7.4514559566  MEMB      149             0.0000000000
     18479       149  DOPE      H11S           13.5944310393       29.3796692691       -6.1458957260  MEMB      149             0.0000000000
     18480       149  DOPE      C212           14.0273274813       31.3794611390       -5.4511213292  MEMB      149             0.0000000000
     18481       149  DOPE      H12R           13.6642145679       32.4145775817       -5.6204059974  MEMB      149             0.0000000000
     18482       149  DOPE      H12S           15.1256187911       31.3826485427       -5.6466180164  MEMB      149             0.0000000000
     18483       149  DOPE      C213           13.8531394975       31.0017760857       -3.9613631529  MEMB      149             0.0000000000
     18484       149  DOPE      H13R           14.3342918399       31.7918085252       -3.3416560403  MEMB      149             0.0000000000
     18485       149  DOPE      H13S           14.4124486639       30.0610416871       -3.7669036934  MEMB      149             0.0000000000
     18486       149  DOPE      C214           12.3995806946       30.8138996307       -3.4918471921  MEMB      149             0.0000000000
     18487       149  DOPE      H14R           11.8820013192       30.1247440524       -4.1926740769  MEMB      149             0.0000000000
     18488       149  DOPE      H14S           11.8674082830       31.7893442665       -3.5039076429  MEMB      149             0.0000000000
     18489       149  DOPE      C215           12.2502413587       30.1315001836       -2.1267559365  MEMB      149             0.0000000000
     18490       149  DOPE      H15R           12.8255503776       29.1858163830       -2.1276449601  MEMB      149             0.0000000000
     18491       149  DOPE      H15S           11.1744407560       29.8918671085       -1.9570237968  MEMB      149             0.0000000000
     18492       149  DOPE      C216           12.7733470446       30.9261718009       -0.9417745796  MEMB      149             0.0000000000
     18493       149  DOPE      H16R           12.1039736205       31.8021687912       -0.8054333322  MEMB      149             0.0000000000
     18494       149  DOPE      H16S           13.7671738767       31.3253185548       -1.1860972176  MEMB      149             0.0000000000
     18495       149  DOPE      C217           12.7475792485       30.0915166985        0.3507782513  MEMB      149             0.0000000000
     18496       149  DOPE      H17R           12.2969201177       29.0926538592        0.1632198361  MEMB      149             0.0000000000
     18497       149  DOPE      H17S           11.9960800566       30.6638783545        0.9218183087  MEMB      149             0.0000000000
     18498       149  DOPE      C218           13.9804018273       29.9555543135        1.2702709306  MEMB      149             0.0000000000
     18499       149  DOPE      H18R           13.6705832895       29.5668798431        2.2646842223  MEMB      149             0.0000000000
     18500       149  DOPE      H18S           14.5005694614       30.9093222131        1.4074157266  MEMB      149             0.0000000000
     18501       149  DOPE      H18T           14.7915641319       29.3164379182        0.9107488975  MEMB      149             0.0000000000
     18502       149  DOPE      C33            10.2148117328       24.8650784580      -14.1347499776  MEMB      149             0.0000000000
     18503       149  DOPE      H3X            10.7492488783       24.0513594921      -13.5898487531  MEMB      149             0.0000000000
     18504       149  DOPE      H3Y             9.2217905225       24.4581537395      -14.4254082208  MEMB      149             0.0000000000
     18505       149  DOPE      C34            10.0748577920       26.0561742133      -13.1701559366  MEMB      149             0.0000000000
     18506       149  DOPE      H4X            11.0724065352       26.2839287522      -12.7342741339  MEMB      149             0.0000000000
     18507       149  DOPE      H4Y             9.7689608382       26.9210480940      -13.7953099105  MEMB      149             0.0000000000
     18508       149  DOPE      C35             9.0545360937       25.8408375653      -12.0303298974  MEMB      149             0.0000000000
     18509       149  DOPE      H5X             9.4525930943       25.0764187443      -11.3283845214  MEMB      149             0.0000000000
     18510       149  DOPE      H5Y             8.1201484300       25.4361653313      -12.4817712278  MEMB      149             0.0000000000
     18511       149  DOPE      C36             8.6788785440       27.1019752236      -11.2188341106  MEMB      149             0.0000000000
     18512       149  DOPE      H6X             9.5703561097       27.4606512603      -10.6624033800  MEMB      149             0.0000000000
     18513       149  DOPE      H6Y             7.9201937888       26.8257525371      -10.4536224961  MEMB      149             0.0000000000
     18514       149  DOPE      C37             8.1104373491       28.2373221276      -12.0934135092  MEMB      149             0.0000000000
     18515       149  DOPE      H7X             8.8818604176       28.5048705918      -12.8317747288  MEMB      149             0.0000000000
     18516       149  DOPE      H7Y             7.2370248926       27.8683214308      -12.6719869820  MEMB      149             0.0000000000
     18517       149  DOPE      C38             7.7520613489       29.5442790091      -11.3608523548  MEMB      149             0.0000000000
     18518       149  DOPE      H8X             7.6163646318       30.3468926703      -12.1219027494  MEMB      149             0.0000000000
     18519       149  DOPE      H8Y             8.6205463115       29.8603219622      -10.7508861950  MEMB      149             0.0000000000
     18520       149  DOPE      C39             6.4992795582       29.4029026395      -10.5404989950  MEMB      149             0.0000000000
     18521       149  DOPE      H9X             5.5622415873       29.4449603045      -11.1170745733  MEMB      149             0.0000000000
     18522       149  DOPE      C310            6.4476450430       29.2003953851       -9.2129940005  MEMB      149             0.0000000000
     18523       149  DOPE      H10X            5.4653309553       29.0810101061       -8.7326722700  MEMB      149             0.0000000000
     18524       149  DOPE      C311            7.6357378221       29.0732192891       -8.2923844956  MEMB      149             0.0000000000
     18525       149  DOPE      H11X            8.5835457394       28.9354188077       -8.8584503746  MEMB      149             0.0000000000
     18526       149  DOPE      H11Y            7.7527329731       29.9936843923       -7.6840904585  MEMB      149             0.0000000000
     18527       149  DOPE      C312            7.4869710846       27.8955504345       -7.3154547346  MEMB      149             0.0000000000
     18528       149  DOPE      H12X            7.3048657847       26.9498109878       -7.8726101521  MEMB      149             0.0000000000
     18529       149  DOPE      H12Y            6.6073041018       28.0892557723       -6.6607753454  MEMB      149             0.0000000000
     18530       149  DOPE      C313            8.7245992538       27.7083451098       -6.4288129069  MEMB      149             0.0000000000
     18531       149  DOPE      H13X            9.0876173021       28.7015650949       -6.0825293282  MEMB      149             0.0000000000
     18532       149  DOPE      H13Y            8.4393364854       27.1227892205       -5.5262649828  MEMB      149             0.0000000000
     18533       149  DOPE      C314            9.8581858785       26.9635689678       -7.1488820197  MEMB      149             0.0000000000
     18534       149  DOPE      H14X            9.9695994650       27.3595752740       -8.1731050646  MEMB      149             0.0000000000
     18535       149  DOPE      H14Y            9.5718490538       25.8945180710       -7.2643465725  MEMB      149             0.0000000000
     18536       149  DOPE      C315           11.1887942976       27.0482488079       -6.3890506580  MEMB      149             0.0000000000
     18537       149  DOPE      H15X           11.4267904169       28.0910282945       -6.1114004053  MEMB      149             0.0000000000
     18538       149  DOPE      H15Y           12.0163607381       26.6736687907       -7.0298821814  MEMB      149             0.0000000000
     18539       149  DOPE      C316           11.0782489196       26.2260921134       -5.1143731219  MEMB      149             0.0000000000
     18540       149  DOPE      H16X           10.6691930721       25.2523361348       -5.4373425116  MEMB      149             0.0000000000
     18541       149  DOPE      H16Y           10.3563944053       26.7118262779       -4.4198851214  MEMB      149             0.0000000000
     18542       149  DOPE      C317           12.3708582196       25.9310899334       -4.3710248750  MEMB      149             0.0000000000
     18543       149  DOPE      H17X           12.0949188801       25.2203919013       -3.5610235758  MEMB      149             0.0000000000
     18544       149  DOPE      H17Y           13.0745031496       25.4084642445       -5.0437821123  MEMB      149             0.0000000000
     18545       149  DOPE      C318           13.0025918043       27.1695098123       -3.7595789421  MEMB      149             0.0000000000
     18546       149  DOPE      H18X           12.2251752722       27.6411541796       -3.1258999416  MEMB      149             0.0000000000
     18547       149  DOPE      H18Y           13.8805327153       26.9243247782       -3.1246532887  MEMB      149             0.0000000000
     18548       149  DOPE      H18Z           13.3260103141       27.8946760150       -4.5342702916  MEMB      149             0.0000000000
     18549       150  23SM      N              29.8477839101       -0.7201074116      -27.6663646964  MEMB      150             0.0000000000
     18550       150  23SM      C15            29.0148662313       -1.3919027535      -26.6241712516  MEMB      150             0.0000000000
     18551       150  23SM      H15A           29.4520010501       -2.3505123825      -26.3661391793  MEMB      150             0.0000000000
     18552       150  23SM      H15B           27.9935533683       -1.5529877408      -26.9484054760  MEMB      150             0.0000000000
     18553       150  23SM      H15C           28.9895944582       -0.7660412912      -25.7274752345  MEMB      150             0.0000000000
     18554       150  23SM      C14            29.8230517983       -1.5077915627      -28.9105238149  MEMB      150             0.0000000000
     18555       150  23SM      H14A           30.3281011225       -2.4558331416      -28.7876072802  MEMB      150             0.0000000000
     18556       150  23SM      H14B           30.2794520397       -0.9931850356      -29.7537250453  MEMB      150             0.0000000000
     18557       150  23SM      H14C           28.8045932256       -1.7437747678      -29.2166618231  MEMB      150             0.0000000000
     18558       150  23SM      C13            29.3039930453        0.6404797449      -27.9235454657  MEMB      150             0.0000000000
     18559       150  23SM      H13A           29.2114841724        1.1575389478      -26.9715103911  MEMB      150             0.0000000000
     18560       150  23SM      H13B           28.3583396691        0.6511183554      -28.4276960475  MEMB      150             0.0000000000
     18561       150  23SM      H13C           30.0072740097        1.2495826204      -28.4951911522  MEMB      150             0.0000000000
     18562       150  23SM      C12            31.2682057902       -0.5882279384      -27.1284847593  MEMB      150             0.0000000000
     18563       150  23SM      H12A           31.8465761348       -0.0297295642      -27.8486113247  MEMB      150             0.0000000000
     18564       150  23SM      H12B           31.7026676045       -1.5754268510      -27.0240060486  MEMB      150             0.0000000000
     18565       150  23SM      C11            31.4527885501        0.1015140920      -25.7552935065  MEMB      150             0.0000000000
     18566       150  23SM      H11A           32.5448142756        0.1810109568      -25.5405245515  MEMB      150             0.0000000000
     18567       150  23SM      H11B           31.0301144571       -0.5790217818      -24.9712893315  MEMB      150             0.0000000000
     18568       150  23SM      P              30.3277358346        1.9629271609      -24.3688846402  MEMB      150             0.0000000000
     18569       150  23SM      O13            30.4460120474        3.4434015998      -24.3413713755  MEMB      150             0.0000000000
     18570       150  23SM      O14            28.9870415943        1.4021111726      -24.0987555533  MEMB      150             0.0000000000
     18571       150  23SM      O11            31.3856882446        1.3207002510      -23.3601238695  MEMB      150             0.0000000000
     18572       150  23SM      O12            30.8752324032        1.4118551357      -25.7490537282  MEMB      150             0.0000000000
     18573       150  23SM      C1S            31.7090288722        2.0420282807      -22.1674713504  MEMB      150             0.0000000000
     18574       150  23SM      H1S            30.8064098899        2.5523914754      -21.7555149229  MEMB      150             0.0000000000
     18575       150  23SM      H1T            32.4823368138        2.8112524904      -22.3938680125  MEMB      150             0.0000000000
     18576       150  23SM      NF             31.3908817254        0.0041651150      -20.7695950916  MEMB      150             0.0000000000
     18577       150  23SM      HNF            30.8593941294        0.0753276997      -19.9414375723  MEMB      150             0.0000000000
     18578       150  23SM      C2S            32.2450849299        1.1485963211      -21.0015825505  MEMB      150             0.0000000000
     18579       150  23SM      H2S            33.2689078490        0.7970617472      -21.2505517785  MEMB      150             0.0000000000
     18580       150  23SM      C3S            32.2567655360        2.0216737224      -19.7080148218  MEMB      150             0.0000000000
     18581       150  23SM      H3S            31.2156416758        2.3698135849      -19.5215404246  MEMB      150             0.0000000000
     18582       150  23SM      O3             33.0574819892        3.1929755164      -19.7277660126  MEMB      150             0.0000000000
     18583       150  23SM      HO3            33.7449733237        3.1011243646      -20.3952415235  MEMB      150             0.0000000000
     18584       150  23SM      C4S            32.6746950758        1.1373459635      -18.5451424534  MEMB      150             0.0000000000
     18585       150  23SM      H4S            33.5697280044        0.5307199595      -18.7436815157  MEMB      150             0.0000000000
     18586       150  23SM      C5S            32.0412346838        1.0055384871      -17.3534579003  MEMB      150             0.0000000000
     18587       150  23SM      H5S            31.1354287322        1.5996187351      -17.1377701850  MEMB      150             0.0000000000
     18588       150  23SM      C6S            32.4982118085        0.0907425835      -16.2389432244  MEMB      150             0.0000000000
     18589       150  23SM      H6S            33.5513629718       -0.2428150561      -16.3798194829  MEMB      150             0.0000000000
     18590       150  23SM      H6T            31.8742761982       -0.8332737354      -16.2816510081  MEMB      150             0.0000000000
     18591       150  23SM      C7S            32.3551067521        0.6119097376      -14.7935697330  MEMB      150             0.0000000000
     18592       150  23SM      H7S            31.3249615944        0.9961866698      -14.6332113163  MEMB      150             0.0000000000
     18593       150  23SM      H7T            33.0505357141        1.4580227764      -14.6018453761  MEMB      150             0.0000000000
     18594       150  23SM      C8S            32.5903158848       -0.5199781067      -13.7763947405  MEMB      150             0.0000000000
     18595       150  23SM      H8S            33.6814866683       -0.7353085118      -13.7058874697  MEMB      150             0.0000000000
     18596       150  23SM      H8T            32.0703239369       -1.4238527993      -14.1484986687  MEMB      150             0.0000000000
     18597       150  23SM      C9S            32.0638643103       -0.2255084009      -12.3683793427  MEMB      150             0.0000000000
     18598       150  23SM      H9S            32.2231849990       -1.1206038805      -11.7257844871  MEMB      150             0.0000000000
     18599       150  23SM      H9T            30.9661773757       -0.0413565686      -12.4038486061  MEMB      150             0.0000000000
     18600       150  23SM      C10S           32.8086438639        0.9882819113      -11.8134373777  MEMB      150             0.0000000000
     18601       150  23SM      H10S           32.3442546638        1.9098797498      -12.2291067787  MEMB      150             0.0000000000
     18602       150  23SM      H10T           33.8527200864        0.9289443012      -12.2014795679  MEMB      150             0.0000000000
     18603       150  23SM      C11S           32.9002917147        1.0915943902      -10.2914351613  MEMB      150             0.0000000000
     18604       150  23SM      H11S           32.8379174791        0.0841913834       -9.8251783215  MEMB      150             0.0000000000
     18605       150  23SM      H11T           32.0364442608        1.6935380967       -9.9299133218  MEMB      150             0.0000000000
     18606       150  23SM      C12S           34.2454035073        1.6916471471       -9.8524441219  MEMB      150             0.0000000000
     18607       150  23SM      H12S           34.6149194424        2.4508017895      -10.5745131367  MEMB      150             0.0000000000
     18608       150  23SM      H12T           34.9941806288        0.8734475462       -9.7951205833  MEMB      150             0.0000000000
     18609       150  23SM      C13S           34.2116072614        2.3243896925       -8.4770213613  MEMB      150             0.0000000000
     18610       150  23SM      H13S           34.2980317173        1.4885954686       -7.7439361578  MEMB      150             0.0000000000
     18611       150  23SM      H13T           33.2255393998        2.8126196885       -8.3606646956  MEMB      150             0.0000000000
     18612       150  23SM      C14S           35.3347734175        3.3537785929       -8.2748880584  MEMB      150             0.0000000000
     18613       150  23SM      H14S           35.2742886359        4.1218077918       -9.0723651425  MEMB      150             0.0000000000
     18614       150  23SM      H14T           36.2737672224        2.7739203959       -8.4299225137  MEMB      150             0.0000000000
     18615       150  23SM      C15S           35.3632451550        4.0549603511       -6.9015705662  MEMB      150             0.0000000000
     18616       150  23SM      H15S           36.4043592826        4.4367261131       -6.7447135509  MEMB      150             0.0000000000
     18617       150  23SM      H15T           34.6887506004        4.9442167265       -6.8486841370  MEMB      150             0.0000000000
     18618       150  23SM      C16S           34.9682228153        3.0690924958       -5.7951035964  MEMB      150             0.0000000000
     18619       150  23SM      H16S           35.3996818912        3.3890803497       -4.8304122679  MEMB      150             0.0000000000
     18620       150  23SM      H16T           35.4393945383        2.0946148349       -6.0415009289  MEMB      150             0.0000000000
     18621       150  23SM      C17S           33.4439897403        2.9493690992       -5.5934089363  MEMB      150             0.0000000000
     18622       150  23SM      H17S           32.8819727379        2.8293173224       -6.5253612396  MEMB      150             0.0000000000
     18623       150  23SM      H17T           33.0813600652        3.9283804933       -5.2340391942  MEMB      150             0.0000000000
     18624       150  23SM      C18S           32.9938995993        1.7963330337       -4.7024736325  MEMB      150             0.0000000000
     18625       150  23SM      H18S           31.8932068324        1.7015467842       -4.7580147885  MEMB      150             0.0000000000
     18626       150  23SM      H18T           33.2829212469        1.9717254244       -3.6468586935  MEMB      150             0.0000000000
     18627       150  23SM      H18U           33.4215917654        0.8364469274       -5.0597940337  MEMB      150             0.0000000000
     18628       150  23SM      C1F            31.2182468767       -1.1025513843      -21.4712144262  MEMB      150             0.0000000000
     18629       150  23SM      OF             31.9857577889       -1.4915092192      -22.3396121561  MEMB      150             0.0000000000
     18630       150  23SM      C2F            30.0654690955       -1.9395009279      -21.0176494896  MEMB      150             0.0000000000
     18631       150  23SM      H2F            30.3849099547       -3.0048093096      -21.0064257284  MEMB      150             0.0000000000
     18632       150  23SM      H2G            29.2446921583       -1.8202248502      -21.7565978390  MEMB      150             0.0000000000
     18633       150  23SM      C3F            29.5470167458       -1.5383947671      -19.6076884289  MEMB      150             0.0000000000
     18634       150  23SM      H3F            29.2305679527       -0.4717143623      -19.5912872622  MEMB      150             0.0000000000
     18635       150  23SM      H3G            30.3320599196       -1.6962420496      -18.8319780534  MEMB      150             0.0000000000
     18636       150  23SM      C4F            28.3015443036       -2.3483279082      -19.2462365558  MEMB      150             0.0000000000
     18637       150  23SM      H4F            28.5861868324       -3.4123040761      -19.0849726548  MEMB      150             0.0000000000
     18638       150  23SM      H4G            27.6398596579       -2.2647989074      -20.1366402595  MEMB      150             0.0000000000
     18639       150  23SM      C5F            27.4808941502       -1.8414352485      -18.0560279806  MEMB      150             0.0000000000
     18640       150  23SM      H5F            26.4054199183       -2.0504482841      -18.2524604941  MEMB      150             0.0000000000
     18641       150  23SM      H5G            27.5791473787       -0.7375466383      -17.9892312945  MEMB      150             0.0000000000
     18642       150  23SM      C6F            27.8287516821       -2.5241939773      -16.7220620479  MEMB      150             0.0000000000
     18643       150  23SM      H6F            28.3925710903       -3.4648944575      -16.9117328873  MEMB      150             0.0000000000
     18644       150  23SM      H6G            26.8874343011       -2.8186248818      -16.2001674007  MEMB      150             0.0000000000
     18645       150  23SM      C7F            28.6209718884       -1.5915281796      -15.8104851931  MEMB      150             0.0000000000
     18646       150  23SM      H7F            29.4733531480       -1.1686547652      -16.3861131151  MEMB      150             0.0000000000
     18647       150  23SM      H7G            29.0462442433       -2.1532085883      -14.9498977470  MEMB      150             0.0000000000
     18648       150  23SM      C8F            27.7452979170       -0.4519995306      -15.2809196168  MEMB      150             0.0000000000
     18649       150  23SM      H8F            27.0768003060       -0.8642408984      -14.4944121947  MEMB      150             0.0000000000
     18650       150  23SM      H8G            27.0890818410       -0.0459240767      -16.0815638782  MEMB      150             0.0000000000
     18651       150  23SM      C9F            28.5801619436        0.7098208013      -14.7468463454  MEMB      150             0.0000000000
     18652       150  23SM      H9F            29.1857100690        1.1334954067      -15.5788280279  MEMB      150             0.0000000000
     18653       150  23SM      H9G            29.2992618655        0.3274810955      -13.9903638206  MEMB      150             0.0000000000
     18654       150  23SM      C10F           27.7140296193        1.8242958092      -14.1508557932  MEMB      150             0.0000000000
     18655       150  23SM      H10F           26.9821729866        2.1758921809      -14.9106677926  MEMB      150             0.0000000000
     18656       150  23SM      H10G           28.3759468437        2.6809529630      -13.8833305424  MEMB      150             0.0000000000
     18657       150  23SM      C11F           26.9592552107        1.3869665612      -12.8961751135  MEMB      150             0.0000000000
     18658       150  23SM      H11F           26.2171213834        0.5926837915      -13.1287892826  MEMB      150             0.0000000000
     18659       150  23SM      H11G           26.3922374701        2.2574525977      -12.4957514012  MEMB      150             0.0000000000
     18660       150  23SM      C12F           27.9002062651        0.8682594176      -11.8122419312  MEMB      150             0.0000000000
     18661       150  23SM      H12F           28.7761162619        1.5514012468      -11.7362161279  MEMB      150             0.0000000000
     18662       150  23SM      H12G           28.2973470496       -0.1328773230      -12.0910251083  MEMB      150             0.0000000000
     18663       150  23SM      C13F           27.1630412164        0.7767551993      -10.4811748151  MEMB      150             0.0000000000
     18664       150  23SM      H13F           27.5736877864       -0.0851113549       -9.9193719503  MEMB      150             0.0000000000
     18665       150  23SM      H13G           26.0950674897        0.5281425219      -10.6602426328  MEMB      150             0.0000000000
     18666       150  23SM      C14F           27.2773515269        2.0918022562       -9.6938294972  MEMB      150             0.0000000000
     18667       150  23SM      H14F           26.5689861795        2.0600488950       -8.8347951435  MEMB      150             0.0000000000
     18668       150  23SM      H14G           26.9798439593        2.9429678097      -10.3432731471  MEMB      150             0.0000000000
     18669       150  23SM      C15F           28.6902032293        2.3117541479       -9.1350112520  MEMB      150             0.0000000000
     18670       150  23SM      H15F           28.7688165320        3.3261125886       -8.6864408534  MEMB      150             0.0000000000
     18671       150  23SM      H15G           29.4643464711        2.2421696359       -9.9285889605  MEMB      150             0.0000000000
     18672       150  23SM      C16F           28.9332734775        1.2562983586       -8.0647207265  MEMB      150             0.0000000000
     18673       150  23SM      H16F           28.7829782875        0.2319306082       -8.4616374973  MEMB      150             0.0000000000
     18674       150  23SM      H16G           28.1590464091        1.4182254122       -7.2836747328  MEMB      150             0.0000000000
     18675       150  23SM      C17F           30.3182947183        1.2122933244       -7.4457230019  MEMB      150             0.0000000000
     18676       150  23SM      H17F           30.6105340469        2.2118850476       -7.0674826052  MEMB      150             0.0000000000
     18677       150  23SM      H17G           31.0734849696        0.8869414113       -8.1912263432  MEMB      150             0.0000000000
     18678       150  23SM      C18F           30.2604497888        0.2382180562       -6.2725873180  MEMB      150             0.0000000000
     18679       150  23SM      H18F           31.2923498678       -0.0472479288       -5.9848524347  MEMB      150             0.0000000000
     18680       150  23SM      H18G           29.7243679777       -0.6907677824       -6.5762348676  MEMB      150             0.0000000000
     18681       150  23SM      C19F           29.5045828989        0.9188010319       -5.1255064508  MEMB      150             0.0000000000
     18682       150  23SM      H19F           28.4119083506        0.7999399579       -5.2998031146  MEMB      150             0.0000000000
     18683       150  23SM      H19G           29.7043480300        2.0107011310       -5.1613170073  MEMB      150             0.0000000000
     18684       150  23SM      C20F           29.8436849474        0.4208998089       -3.7232865260  MEMB      150             0.0000000000
     18685       150  23SM      H20F           30.8516731680        0.7390135176       -3.3865091184  MEMB      150             0.0000000000
     18686       150  23SM      H20G           29.8767821119       -0.6840296844       -3.7636581089  MEMB      150             0.0000000000
     18687       150  23SM      C21F           28.8026709211        0.9589253410       -2.7336675231  MEMB      150             0.0000000000
     18688       150  23SM      H21F           27.8888209949        1.2376913778       -3.3072278314  MEMB      150             0.0000000000
     18689       150  23SM      H21G           29.2000845660        1.8894661577       -2.2697043349  MEMB      150             0.0000000000
     18690       150  23SM      C22F           28.3625316123       -0.0357679082       -1.6603312736  MEMB      150             0.0000000000
     18691       150  23SM      H22F           27.5703155937        0.4326456702       -1.0303047323  MEMB      150             0.0000000000
     18692       150  23SM      H22G           29.2320504174       -0.2202949465       -0.9931089145  MEMB      150             0.0000000000
     18693       150  23SM      C23F           27.8154794983       -1.3583053079       -2.2214434276  MEMB      150             0.0000000000
     18694       150  23SM      H23F           27.5489966727       -2.0676459217       -1.4127112310  MEMB      150             0.0000000000
     18695       150  23SM      H23G           28.5668469734       -1.8738509572       -2.8512875083  MEMB      150             0.0000000000
     18696       150  23SM      H23H           26.9078510297       -1.1704137243       -2.8300961246  MEMB      150             0.0000000000
     18697       151  DOPC      N             -12.7852124062      -29.0684108493      -17.7510597850  MEMB      151             0.0000000000
     18698       151  DOPC      C12           -12.9862830878      -28.1188191300      -18.9334479737  MEMB      151             0.0000000000
     18699       151  DOPC      H12A          -12.9816806225      -28.6997386154      -19.8506678817  MEMB      151             0.0000000000
     18700       151  DOPC      H12B          -12.1022371625      -27.4855303408      -19.0016294098  MEMB      151             0.0000000000
     18701       151  DOPC      C13           -12.5072845829      -28.2768796783      -16.5211246937  MEMB      151             0.0000000000
     18702       151  DOPC      H13A          -12.3480305709      -28.9202681318      -15.6655387570  MEMB      151             0.0000000000
     18703       151  DOPC      H13B          -11.5937862922      -27.7031157238      -16.6456202279  MEMB      151             0.0000000000
     18704       151  DOPC      H13C          -13.3301379226      -27.6039937264      -16.3220466852  MEMB      151             0.0000000000
     18705       151  DOPC      C14           -11.5814977024      -29.9160792858      -18.0713164775  MEMB      151             0.0000000000
     18706       151  DOPC      H14A          -10.7549493077      -29.2814147712      -18.4114351780  MEMB      151             0.0000000000
     18707       151  DOPC      H14B          -11.2279105929      -30.4818374608      -17.2180510327  MEMB      151             0.0000000000
     18708       151  DOPC      H14C          -11.7948979655      -30.6103384860      -18.8792353451  MEMB      151             0.0000000000
     18709       151  DOPC      C15           -13.9996021870      -29.9178679035      -17.5653191266  MEMB      151             0.0000000000
     18710       151  DOPC      H15A          -14.8889238290      -29.2795081065      -17.5096688210  MEMB      151             0.0000000000
     18711       151  DOPC      H15B          -13.9368121817      -30.5387708598      -16.6839139185  MEMB      151             0.0000000000
     18712       151  DOPC      H15C          -14.1556156889      -30.5442654705      -18.4372138079  MEMB      151             0.0000000000
     18713       151  DOPC      C11           -14.2384473349      -27.2056302514      -18.9579279116  MEMB      151             0.0000000000
     18714       151  DOPC      H11A          -14.2659364976      -26.6173670729      -18.0175349263  MEMB      151             0.0000000000
     18715       151  DOPC      H11B          -14.1156400711      -26.4732087650      -19.7937888651  MEMB      151             0.0000000000
     18716       151  DOPC      P             -16.2883196637      -27.9694699334      -20.4220485073  MEMB      151             0.0000000000
     18717       151  DOPC      O13           -15.4301205234      -28.1319655115      -21.5955972422  MEMB      151             0.0000000000
     18718       151  DOPC      O14           -17.2308892999      -26.8185728009      -20.4131990202  MEMB      151             0.0000000000
     18719       151  DOPC      O12           -15.4444676837      -27.9533999630      -19.0649269542  MEMB      151             0.0000000000
     18720       151  DOPC      O11           -17.1330523931      -29.3085027287      -20.3820806210  MEMB      151             0.0000000000
     18721       151  DOPC      C1            -17.7016765466      -29.9217888285      -19.2481757798  MEMB      151             0.0000000000
     18722       151  DOPC      HA            -16.9120508141      -30.3997588037      -18.6265118209  MEMB      151             0.0000000000
     18723       151  DOPC      HB            -18.3868336594      -30.7346713157      -19.5766118924  MEMB      151             0.0000000000
     18724       151  DOPC      C2            -18.4977828065      -28.9212843067      -18.3940136875  MEMB      151             0.0000000000
     18725       151  DOPC      HS            -18.8114053509      -28.0584155564      -19.0309415157  MEMB      151             0.0000000000
     18726       151  DOPC      O21           -17.5849418704      -28.5294194919      -17.3584028245  MEMB      151             0.0000000000
     18727       151  DOPC      C21           -17.7996606843      -27.3389338844      -16.8781652565  MEMB      151             0.0000000000
     18728       151  DOPC      O22           -18.7799831459      -26.6392539426      -17.0592092283  MEMB      151             0.0000000000
     18729       151  DOPC      C22           -16.5487852538      -26.9241576122      -16.0958926611  MEMB      151             0.0000000000
     18730       151  DOPC      H2R           -15.9370867665      -26.3082416700      -16.7863256993  MEMB      151             0.0000000000
     18731       151  DOPC      H2S           -15.9717657227      -27.8210595284      -15.8019056581  MEMB      151             0.0000000000
     18732       151  DOPC      C3            -19.7903976943      -29.5421474362      -17.8297547410  MEMB      151             0.0000000000
     18733       151  DOPC      HX            -20.5076848196      -29.7043119490      -18.6614841273  MEMB      151             0.0000000000
     18734       151  DOPC      HY            -20.2727126458      -28.7894114089      -17.1608185813  MEMB      151             0.0000000000
     18735       151  DOPC      O31           -19.4841261396      -30.8092653183      -17.2090626320  MEMB      151             0.0000000000
     18736       151  DOPC      C31           -19.2212328479      -30.6563984510      -15.9108414320  MEMB      151             0.0000000000
     18737       151  DOPC      O32           -19.4917683668      -29.6662843719      -15.2600867598  MEMB      151             0.0000000000
     18738       151  DOPC      C32           -18.3328786551      -31.7538522062      -15.3812386635  MEMB      151             0.0000000000
     18739       151  DOPC      H2X           -18.9473347824      -32.3904710379      -14.7089695523  MEMB      151             0.0000000000
     18740       151  DOPC      H2Y           -17.9640952847      -32.3688953912      -16.2267836549  MEMB      151             0.0000000000
     18741       151  DOPC      C23           -16.9263766777      -26.0807531406      -14.8747420825  MEMB      151             0.0000000000
     18742       151  DOPC      H3R           -17.6055979060      -25.2658904830      -15.2197655244  MEMB      151             0.0000000000
     18743       151  DOPC      H3S           -16.0258615487      -25.6018279150      -14.4344302469  MEMB      151             0.0000000000
     18744       151  DOPC      C24           -17.6568703144      -26.8759099343      -13.7903103448  MEMB      151             0.0000000000
     18745       151  DOPC      H4R           -18.5605791309      -27.3650491184      -14.2245939671  MEMB      151             0.0000000000
     18746       151  DOPC      H4S           -18.0110911736      -26.1287420080      -13.0675101642  MEMB      151             0.0000000000
     18747       151  DOPC      C25           -16.8385776372      -27.9196890716      -13.0196489119  MEMB      151             0.0000000000
     18748       151  DOPC      H5R           -15.9133808824      -28.1867657133      -13.5699813956  MEMB      151             0.0000000000
     18749       151  DOPC      H5S           -17.4704267398      -28.8371440792      -12.9504137533  MEMB      151             0.0000000000
     18750       151  DOPC      C26           -16.5051852537      -27.5113400966      -11.5736279338  MEMB      151             0.0000000000
     18751       151  DOPC      H6R           -17.4331724008      -27.1944790918      -11.0506747744  MEMB      151             0.0000000000
     18752       151  DOPC      H6S           -15.8032856342      -26.6500511752      -11.5891233245  MEMB      151             0.0000000000
     18753       151  DOPC      C27           -15.8786403475      -28.6820081117      -10.7995583584  MEMB      151             0.0000000000
     18754       151  DOPC      H7R           -14.9314005790      -28.9193251544      -11.3163082958  MEMB      151             0.0000000000
     18755       151  DOPC      H7S           -16.5528336127      -29.5669196610      -10.8723455975  MEMB      151             0.0000000000
     18756       151  DOPC      C28           -15.5798148799      -28.4422324724       -9.3162217125  MEMB      151             0.0000000000
     18757       151  DOPC      H8R           -14.9866113270      -29.2664128721       -8.8766140143  MEMB      151             0.0000000000
     18758       151  DOPC      H8S           -16.5284484762      -28.4427335503       -8.7525450798  MEMB      151             0.0000000000
     18759       151  DOPC      C29           -14.8428784430      -27.1658381200       -9.1068677732  MEMB      151             0.0000000000
     18760       151  DOPC      H9R           -14.1976225595      -26.8319468908       -9.9341607443  MEMB      151             0.0000000000
     18761       151  DOPC      C210          -14.8525208914      -26.5096371062       -7.9477970729  MEMB      151             0.0000000000
     18762       151  DOPC      H10R          -14.2539997351      -25.5947280035       -7.8836039254  MEMB      151             0.0000000000
     18763       151  DOPC      C211          -15.5884185070      -26.9623566491       -6.7089857291  MEMB      151             0.0000000000
     18764       151  DOPC      H11R          -14.8580820249      -27.0257100576       -5.8766236700  MEMB      151             0.0000000000
     18765       151  DOPC      H11S          -15.9937107198      -27.9930416514       -6.8128771091  MEMB      151             0.0000000000
     18766       151  DOPC      C212          -16.7512464157      -26.0945905760       -6.2161899855  MEMB      151             0.0000000000
     18767       151  DOPC      H12R          -17.6225160703      -26.1710165450       -6.9032392417  MEMB      151             0.0000000000
     18768       151  DOPC      H12S          -16.4469789917      -25.0342535150       -6.1937024316  MEMB      151             0.0000000000
     18769       151  DOPC      C213          -17.1292361184      -26.4271735082       -4.7661781779  MEMB      151             0.0000000000
     18770       151  DOPC      H13R          -18.0368536592      -25.8661935564       -4.5219502586  MEMB      151             0.0000000000
     18771       151  DOPC      H13S          -16.3868634680      -25.9976890857       -4.0719174224  MEMB      151             0.0000000000
     18772       151  DOPC      C214          -17.2628151979      -27.9144078295       -4.4115557217  MEMB      151             0.0000000000
     18773       151  DOPC      H14R          -16.3332965179      -28.4614764084       -4.6772543065  MEMB      151             0.0000000000
     18774       151  DOPC      H14S          -18.0935696406      -28.3892376488       -4.9679687885  MEMB      151             0.0000000000
     18775       151  DOPC      C215          -17.4957967949      -28.0895892504       -2.9106709964  MEMB      151             0.0000000000
     18776       151  DOPC      H15R          -18.1014516724      -27.2580430195       -2.4983573600  MEMB      151             0.0000000000
     18777       151  DOPC      H15S          -16.5059468481      -28.0431019191       -2.4169726777  MEMB      151             0.0000000000
     18778       151  DOPC      C216          -18.2007982306      -29.3846508094       -2.5378732669  MEMB      151             0.0000000000
     18779       151  DOPC      H16R          -17.7696904647      -30.1795323234       -3.1851257072  MEMB      151             0.0000000000
     18780       151  DOPC      H16S          -19.2818018564      -29.3072416480       -2.7821583999  MEMB      151             0.0000000000
     18781       151  DOPC      C217          -17.9866045782      -29.7506962438       -1.0587968550  MEMB      151             0.0000000000
     18782       151  DOPC      H17R          -16.9895181839      -29.3839588357       -0.7565668785  MEMB      151             0.0000000000
     18783       151  DOPC      H17S          -17.9828178343      -30.8471395426       -0.8686775434  MEMB      151             0.0000000000
     18784       151  DOPC      C218          -18.9466053738      -29.0639084743       -0.1263678361  MEMB      151             0.0000000000
     18785       151  DOPC      H18R          -18.9290321051      -27.9707498576       -0.3356613918  MEMB      151             0.0000000000
     18786       151  DOPC      H18S          -18.6194650572      -29.2325607407        0.9190948237  MEMB      151             0.0000000000
     18787       151  DOPC      H18T          -19.9758411143      -29.4486508422       -0.2368741153  MEMB      151             0.0000000000
     18788       151  DOPC      C33           -17.1853485165      -31.1193926334      -14.5829757178  MEMB      151             0.0000000000
     18789       151  DOPC      H3X           -17.4145796841      -31.2716177518      -13.5044533113  MEMB      151             0.0000000000
     18790       151  DOPC      H3Y           -17.1256625298      -30.0175706723      -14.7535580012  MEMB      151             0.0000000000
     18791       151  DOPC      C34           -15.8199159911      -31.6779098533      -14.9737630451  MEMB      151             0.0000000000
     18792       151  DOPC      H4X           -15.6540010980      -31.4719618690      -16.0503722139  MEMB      151             0.0000000000
     18793       151  DOPC      H4Y           -15.8283685149      -32.7832076603      -14.8409092907  MEMB      151             0.0000000000
     18794       151  DOPC      C35           -14.6902597782      -31.0692104183      -14.1305305607  MEMB      151             0.0000000000
     18795       151  DOPC      H5X           -14.6625978502      -29.9639846750      -14.2565235971  MEMB      151             0.0000000000
     18796       151  DOPC      H5Y           -13.7158834616      -31.4832585172      -14.4713439966  MEMB      151             0.0000000000
     18797       151  DOPC      C36           -14.9060312849      -31.4314497820      -12.6597795470  MEMB      151             0.0000000000
     18798       151  DOPC      H6X           -15.7855165189      -30.8825147088      -12.2681211711  MEMB      151             0.0000000000
     18799       151  DOPC      H6Y           -15.1681100404      -32.5132824150      -12.6357814075  MEMB      151             0.0000000000
     18800       151  DOPC      C37           -13.7210970040      -31.2050175568      -11.7141740276  MEMB      151             0.0000000000
     18801       151  DOPC      H7X           -12.8163621147      -31.7119287128      -12.1017277647  MEMB      151             0.0000000000
     18802       151  DOPC      H7Y           -13.4331506983      -30.1332752740      -11.6827417715  MEMB      151             0.0000000000
     18803       151  DOPC      C38           -14.0462377554      -31.6964609255      -10.2802093341  MEMB      151             0.0000000000
     18804       151  DOPC      H8X           -14.6861841397      -30.9302787891       -9.8223398582  MEMB      151             0.0000000000
     18805       151  DOPC      H8Y           -13.0902232152      -31.6895438014       -9.7071849653  MEMB      151             0.0000000000
     18806       151  DOPC      C39           -14.7440908484      -33.0328016502      -10.1234818946  MEMB      151             0.0000000000
     18807       151  DOPC      H9X           -14.3010926874      -33.8420411633      -10.7156658557  MEMB      151             0.0000000000
     18808       151  DOPC      C310          -15.8220671090      -33.3342167340       -9.3681821957  MEMB      151             0.0000000000
     18809       151  DOPC      H10X          -16.0895270275      -34.3986055609       -9.2569321842  MEMB      151             0.0000000000
     18810       151  DOPC      C311          -16.6145819456      -32.4059540394       -8.4760769973  MEMB      151             0.0000000000
     18811       151  DOPC      H11X          -17.7039843518      -32.6232138479       -8.5417182484  MEMB      151             0.0000000000
     18812       151  DOPC      H11Y          -16.4846678649      -31.3356719523       -8.7603173496  MEMB      151             0.0000000000
     18813       151  DOPC      C312          -16.1326147108      -32.5567815624       -7.0252591369  MEMB      151             0.0000000000
     18814       151  DOPC      H12X          -15.9893627477      -33.6304074776       -6.7661277988  MEMB      151             0.0000000000
     18815       151  DOPC      H12Y          -16.8923274898      -32.1523436352       -6.3213109788  MEMB      151             0.0000000000
     18816       151  DOPC      C313          -14.8351707911      -31.7589102700       -6.8365880895  MEMB      151             0.0000000000
     18817       151  DOPC      H13X          -14.1003733511      -32.1030975987       -7.5980805680  MEMB      151             0.0000000000
     18818       151  DOPC      H13Y          -15.0545446117      -30.6898058612       -7.0561702745  MEMB      151             0.0000000000
     18819       151  DOPC      C314          -14.2285899581      -31.8525743476       -5.4355918848  MEMB      151             0.0000000000
     18820       151  DOPC      H14X          -14.4800252337      -32.8163690048       -4.9539309978  MEMB      151             0.0000000000
     18821       151  DOPC      H14Y          -13.1189321308      -31.7764180016       -5.4936154281  MEMB      151             0.0000000000
     18822       151  DOPC      C315          -14.7728018861      -30.7898834417       -4.4908611201  MEMB      151             0.0000000000
     18823       151  DOPC      H15X          -15.8815682853      -30.9119016467       -4.4431692960  MEMB      151             0.0000000000
     18824       151  DOPC      H15Y          -14.5637275317      -29.7797896806       -4.9029082340  MEMB      151             0.0000000000
     18825       151  DOPC      C316          -14.1670491704      -30.9379617003       -3.0880030145  MEMB      151             0.0000000000
     18826       151  DOPC      H16X          -14.3577169123      -31.9743168203       -2.7240455321  MEMB      151             0.0000000000
     18827       151  DOPC      H16Y          -13.0727568418      -30.7613307121       -3.1148003430  MEMB      151             0.0000000000
     18828       151  DOPC      C317          -14.8146812516      -29.9743534165       -2.1087215191  MEMB      151             0.0000000000
     18829       151  DOPC      H17X          -14.5629735714      -28.9214162039       -2.3634014454  MEMB      151             0.0000000000
     18830       151  DOPC      H17Y          -15.8837526589      -30.1227239556       -2.3257568088  MEMB      151             0.0000000000
     18831       151  DOPC      C318          -14.6024823421      -30.2528513309       -0.6198352186  MEMB      151             0.0000000000
     18832       151  DOPC      H18X          -15.0470854925      -29.4343825135       -0.0084491344  MEMB      151             0.0000000000
     18833       151  DOPC      H18Y          -15.0857079547      -31.2097876120       -0.3311404510  MEMB      151             0.0000000000
     18834       151  DOPC      H18Z          -13.5340279101      -30.3374839222       -0.3706258897  MEMB      151             0.0000000000
     18835       152  DOPE      N             -23.1248439304       23.2277656530      -18.6175530559  MEMB      152             0.0000000000
     18836       152  DOPE      HN1           -22.9873622452       24.2524021101      -18.7160701386  MEMB      152             0.0000000000
     18837       152  DOPE      HN2           -24.1462756823       23.0717734734      -18.4275152796  MEMB      152             0.0000000000
     18838       152  DOPE      HN3           -22.5798916930       22.8242652695      -17.8272033466  MEMB      152             0.0000000000
     18839       152  DOPE      C12           -22.8987737087       22.4483231177      -19.8621207788  MEMB      152             0.0000000000
     18840       152  DOPE      H12A          -21.8816084928       21.9994839010      -19.8398191184  MEMB      152             0.0000000000
     18841       152  DOPE      H12B          -22.9971705609       23.1464268843      -20.7092226533  MEMB      152             0.0000000000
     18842       152  DOPE      C11           -23.9225469530       21.3174975314      -19.8351584322  MEMB      152             0.0000000000
     18843       152  DOPE      H11A          -23.7482011046       20.8468682078      -18.8769541832  MEMB      152             0.0000000000
     18844       152  DOPE      H11B          -23.7634473471       20.5754377923      -20.6234395179  MEMB      152             0.0000000000
     18845       152  DOPE      P             -26.4224816879       20.7090061652      -19.3793890770  MEMB      152             0.0000000000
     18846       152  DOPE      O13           -27.3108843926       20.4900154555      -20.5290588406  MEMB      152             0.0000000000
     18847       152  DOPE      O14           -26.9410351515       21.2397852586      -18.1233073054  MEMB      152             0.0000000000
     18848       152  DOPE      O11           -25.6285948258       19.3960430618      -19.0449808628  MEMB      152             0.0000000000
     18849       152  DOPE      O12           -25.2647773826       21.7224390704      -19.8349190876  MEMB      152             0.0000000000
     18850       152  DOPE      C1            -25.3725052656       18.4340112848      -20.0664589607  MEMB      152             0.0000000000
     18851       152  DOPE      HA            -25.0055539286       18.9099071471      -20.9974602781  MEMB      152             0.0000000000
     18852       152  DOPE      HB            -26.3225693917       17.9255414694      -20.3249869067  MEMB      152             0.0000000000
     18853       152  DOPE      C2            -24.3273872054       17.3906921816      -19.6035957754  MEMB      152             0.0000000000
     18854       152  DOPE      HS            -24.0700589277       16.7043341050      -20.4439137732  MEMB      152             0.0000000000
     18855       152  DOPE      O21           -24.8107650591       16.6074856029      -18.5029450305  MEMB      152             0.0000000000
     18856       152  DOPE      C21           -26.0975358027       16.4011509668      -18.3201998664  MEMB      152             0.0000000000
     18857       152  DOPE      O22           -26.8681876904       15.8949583736      -19.1239429927  MEMB      152             0.0000000000
     18858       152  DOPE      C22           -26.2730828128       16.5746059264      -16.7967364220  MEMB      152             0.0000000000
     18859       152  DOPE      H2R           -25.3765193911       17.1190239193      -16.4132387609  MEMB      152             0.0000000000
     18860       152  DOPE      H2S           -26.2360588499       15.5583029983      -16.3584455692  MEMB      152             0.0000000000
     18861       152  DOPE      C3            -22.9950477063       18.0260226969      -19.0931680786  MEMB      152             0.0000000000
     18862       152  DOPE      HX            -22.2137302403       18.3158596788      -19.8234971359  MEMB      152             0.0000000000
     18863       152  DOPE      HY            -22.6291113030       17.1316257319      -18.5982125455  MEMB      152             0.0000000000
     18864       152  DOPE      O31           -23.2436274984       18.9726055344      -18.0545795829  MEMB      152             0.0000000000
     18865       152  DOPE      C31           -22.3855424328       19.6706994206      -17.3538202977  MEMB      152             0.0000000000
     18866       152  DOPE      O32           -21.2494086428       19.9886295093      -17.6870937824  MEMB      152             0.0000000000
     18867       152  DOPE      C32           -23.3015876993       20.3710969938      -16.2851646904  MEMB      152             0.0000000000
     18868       152  DOPE      H2X           -22.7212662778       21.2131432111      -15.9194601219  MEMB      152             0.0000000000
     18869       152  DOPE      H2Y           -24.1858998456       20.7822988081      -16.8280829031  MEMB      152             0.0000000000
     18870       152  DOPE      C23           -27.5202893377       17.3324990808      -16.2824753232  MEMB      152             0.0000000000
     18871       152  DOPE      H3R           -28.4472943459       16.7881351593      -16.5615829251  MEMB      152             0.0000000000
     18872       152  DOPE      H3S           -27.5825284086       18.3493978497      -16.7341360222  MEMB      152             0.0000000000
     18873       152  DOPE      C24           -27.4092091640       17.4285458468      -14.7500683372  MEMB      152             0.0000000000
     18874       152  DOPE      H4R           -26.3954597746       17.8080073640      -14.5061472491  MEMB      152             0.0000000000
     18875       152  DOPE      H4S           -27.4442538920       16.3952511033      -14.3470617843  MEMB      152             0.0000000000
     18876       152  DOPE      C25           -28.4275587159       18.3240721810      -14.0181162560  MEMB      152             0.0000000000
     18877       152  DOPE      H5R           -29.4495943439       18.1387686520      -14.4165790506  MEMB      152             0.0000000000
     18878       152  DOPE      H5S           -28.1790826935       19.3895962220      -14.2277342297  MEMB      152             0.0000000000
     18879       152  DOPE      C26           -28.4155909771       18.0838787252      -12.4867545368  MEMB      152             0.0000000000
     18880       152  DOPE      H6R           -27.3696649614       17.9597664104      -12.1299248063  MEMB      152             0.0000000000
     18881       152  DOPE      H6S           -28.9747114522       17.1516902799      -12.2739272358  MEMB      152             0.0000000000
     18882       152  DOPE      C27           -29.0757356195       19.2008547789      -11.6718720501  MEMB      152             0.0000000000
     18883       152  DOPE      H7R           -29.9627492551       19.5041811646      -12.2697197581  MEMB      152             0.0000000000
     18884       152  DOPE      H7S           -28.3927531761       20.0737678094      -11.6065526942  MEMB      152             0.0000000000
     18885       152  DOPE      C28           -29.5740422326       18.8402926254      -10.2448587590  MEMB      152             0.0000000000
     18886       152  DOPE      H8R           -30.5004206405       18.2286352024      -10.3653836295  MEMB      152             0.0000000000
     18887       152  DOPE      H8S           -29.9158494013       19.7978076991       -9.7894311424  MEMB      152             0.0000000000
     18888       152  DOPE      C29           -28.6411571995       18.1254184635       -9.2867562643  MEMB      152             0.0000000000
     18889       152  DOPE      H9R           -28.5707471322       17.0549309857       -9.4757344147  MEMB      152             0.0000000000
     18890       152  DOPE      C210          -27.8438565504       18.6554679494       -8.3311479152  MEMB      152             0.0000000000
     18891       152  DOPE      H10R          -27.2780327863       17.9863574962       -7.6603026172  MEMB      152             0.0000000000
     18892       152  DOPE      C211          -27.7791353451       20.1404306685       -8.0977658866  MEMB      152             0.0000000000
     18893       152  DOPE      H11R          -28.7998639311       20.5293319457       -7.9079393010  MEMB      152             0.0000000000
     18894       152  DOPE      H11S          -27.4847517094       20.5180356001       -9.1043126927  MEMB      152             0.0000000000
     18895       152  DOPE      C212          -26.8066450280       20.9462621974       -7.1815920710  MEMB      152             0.0000000000
     18896       152  DOPE      H12R          -27.0602470496       21.9981840072       -7.4263197088  MEMB      152             0.0000000000
     18897       152  DOPE      H12S          -25.7430082524       20.8015060380       -7.4417907194  MEMB      152             0.0000000000
     18898       152  DOPE      C213          -27.0528223420       21.0145996143       -5.6774584770  MEMB      152             0.0000000000
     18899       152  DOPE      H13R          -26.6379144408       20.1254450376       -5.1642757393  MEMB      152             0.0000000000
     18900       152  DOPE      H13S          -28.1562762747       21.0095728376       -5.5523188143  MEMB      152             0.0000000000
     18901       152  DOPE      C214          -26.4968224605       22.3155304140       -5.0334349486  MEMB      152             0.0000000000
     18902       152  DOPE      H14R          -27.3487275548       22.9315155460       -4.6808369817  MEMB      152             0.0000000000
     18903       152  DOPE      H14S          -25.9387842186       22.9386891351       -5.7628227532  MEMB      152             0.0000000000
     18904       152  DOPE      C215          -25.6120124413       22.0466659192       -3.8161861730  MEMB      152             0.0000000000
     18905       152  DOPE      H15R          -24.5749509722       21.8829136255       -4.1733791142  MEMB      152             0.0000000000
     18906       152  DOPE      H15S          -25.9737697176       21.1096024430       -3.3301952135  MEMB      152             0.0000000000
     18907       152  DOPE      C216          -25.6281578079       23.1251903586       -2.7289187403  MEMB      152             0.0000000000
     18908       152  DOPE      H16R          -25.8348866583       24.1337563987       -3.1481293660  MEMB      152             0.0000000000
     18909       152  DOPE      H16S          -24.6323822599       23.1597383457       -2.2280201924  MEMB      152             0.0000000000
     18910       152  DOPE      C217          -26.6540657049       22.7708537800       -1.6548448014  MEMB      152             0.0000000000
     18911       152  DOPE      H17R          -26.5308216272       21.7012800300       -1.3646926150  MEMB      152             0.0000000000
     18912       152  DOPE      H17S          -27.6722086877       22.8725110584       -2.0689722003  MEMB      152             0.0000000000
     18913       152  DOPE      C218          -26.5671399823       23.6513397263       -0.4259034198  MEMB      152             0.0000000000
     18914       152  DOPE      H18R          -26.4799194187       24.7201235799       -0.7010021267  MEMB      152             0.0000000000
     18915       152  DOPE      H18S          -25.6913542050       23.3529987074        0.1942319317  MEMB      152             0.0000000000
     18916       152  DOPE      H18T          -27.5050935953       23.5351208555        0.1549120143  MEMB      152             0.0000000000
     18917       152  DOPE      C33           -23.9085536814       19.5691050005      -15.0790382691  MEMB      152             0.0000000000
     18918       152  DOPE      H3X           -23.3915204993       18.6094567242      -14.9381883960  MEMB      152             0.0000000000
     18919       152  DOPE      H3Y           -24.9857286016       19.3503823852      -15.2784745755  MEMB      152             0.0000000000
     18920       152  DOPE      C34           -23.7841395339       20.2037740092      -13.6786782037  MEMB      152             0.0000000000
     18921       152  DOPE      H4X           -22.7067032664       20.2972738458      -13.4159013500  MEMB      152             0.0000000000
     18922       152  DOPE      H4Y           -24.2189360156       21.2202801458      -13.6719513610  MEMB      152             0.0000000000
     18923       152  DOPE      C35           -24.5129793084       19.3543549817      -12.6132829366  MEMB      152             0.0000000000
     18924       152  DOPE      H5X           -23.9320997573       18.4309829421      -12.4085515601  MEMB      152             0.0000000000
     18925       152  DOPE      H5Y           -25.4936265179       19.0314964639      -13.0250277401  MEMB      152             0.0000000000
     18926       152  DOPE      C36           -24.8462190852       20.1001592144      -11.3064856834  MEMB      152             0.0000000000
     18927       152  DOPE      H6X           -25.2816470485       19.4035338765      -10.5538952671  MEMB      152             0.0000000000
     18928       152  DOPE      H6Y           -25.6666506604       20.8035625306      -11.5501454239  MEMB      152             0.0000000000
     18929       152  DOPE      C37           -23.6747731825       20.8681836910      -10.6677237883  MEMB      152             0.0000000000
     18930       152  DOPE      H7X           -23.0054308583       21.3113939562      -11.4349119923  MEMB      152             0.0000000000
     18931       152  DOPE      H7Y           -24.1046673091       21.7150824094      -10.0858962272  MEMB      152             0.0000000000
     18932       152  DOPE      C38           -22.8692179940       20.0062249412       -9.6854360593  MEMB      152             0.0000000000
     18933       152  DOPE      H8X           -23.6057293348       19.5885860998       -8.9627268150  MEMB      152             0.0000000000
     18934       152  DOPE      H8Y           -22.1696463501       20.6431046710       -9.1010725432  MEMB      152             0.0000000000
     18935       152  DOPE      C39           -22.1058490069       18.9370796169      -10.4263846142  MEMB      152             0.0000000000
     18936       152  DOPE      H9X           -21.3373137290       19.3146001204      -11.1198076285  MEMB      152             0.0000000000
     18937       152  DOPE      C310          -22.3295238858       17.6130065371      -10.3450232720  MEMB      152             0.0000000000
     18938       152  DOPE      H10X          -21.7480846298       16.9294923732      -10.9812682169  MEMB      152             0.0000000000
     18939       152  DOPE      C311          -23.3886881618       16.9654770501       -9.4912172023  MEMB      152             0.0000000000
     18940       152  DOPE      H11X          -24.3709876487       17.4653151398       -9.6535557208  MEMB      152             0.0000000000
     18941       152  DOPE      H11Y          -23.5226794927       15.9009521979       -9.7845965459  MEMB      152             0.0000000000
     18942       152  DOPE      C312          -23.0424431427       17.0382307386       -7.9897081631  MEMB      152             0.0000000000
     18943       152  DOPE      H12X          -22.9198294657       18.0995594402       -7.6823168724  MEMB      152             0.0000000000
     18944       152  DOPE      H12Y          -22.0730636637       16.5250633131       -7.8065310528  MEMB      152             0.0000000000
     18945       152  DOPE      C313          -24.1264747774       16.4103344675       -7.1050510463  MEMB      152             0.0000000000
     18946       152  DOPE      H13X          -25.0907032270       16.9348693836       -7.2941586121  MEMB      152             0.0000000000
     18947       152  DOPE      H13Y          -24.2558919251       15.3481112989       -7.4119962979  MEMB      152             0.0000000000
     18948       152  DOPE      C314          -23.8098763648       16.4634879221       -5.5988916275  MEMB      152             0.0000000000
     18949       152  DOPE      H14X          -22.8359161090       15.9609415294       -5.4051641167  MEMB      152             0.0000000000
     18950       152  DOPE      H14Y          -24.5999768906       15.8906856527       -5.0621674813  MEMB      152             0.0000000000
     18951       152  DOPE      C315          -23.7706741236       17.8905934095       -5.0289862189  MEMB      152             0.0000000000
     18952       152  DOPE      H15X          -24.6276415631       18.4686082412       -5.4471808745  MEMB      152             0.0000000000
     18953       152  DOPE      H15Y          -22.8393994650       18.3938949197       -5.3710101893  MEMB      152             0.0000000000
     18954       152  DOPE      C316          -23.8534085896       17.9535623628       -3.4919252942  MEMB      152             0.0000000000
     18955       152  DOPE      H16X          -23.1304782447       17.2454721661       -3.0345807227  MEMB      152             0.0000000000
     18956       152  DOPE      H16Y          -24.8806577295       17.6606983517       -3.1767159167  MEMB      152             0.0000000000
     18957       152  DOPE      C317          -23.5623318724       19.3663174218       -2.9710873876  MEMB      152             0.0000000000
     18958       152  DOPE      H17X          -22.4953119776       19.6047780948       -3.1398481020  MEMB      152             0.0000000000
     18959       152  DOPE      H17Y          -24.1424618699       20.0465114596       -3.6147021498  MEMB      152             0.0000000000
     18960       152  DOPE      C318          -23.9124791192       19.6332997395       -1.5047104896  MEMB      152             0.0000000000
     18961       152  DOPE      H18X          -23.7955388004       20.7144103366       -1.2701810208  MEMB      152             0.0000000000
     18962       152  DOPE      H18Y          -24.9646100567       19.3554233520       -1.2877411365  MEMB      152             0.0000000000
     18963       152  DOPE      H18Z          -23.2430984241       19.0567648026       -0.8322965562  MEMB      152             0.0000000000
     18964       153  CHL1      C3            -29.4401632356       12.8386656403      -17.2311351004  MEMB      153             0.0000000000
     18965       153  CHL1      H3            -29.1233920618       11.7727384113      -17.2831222370  MEMB      153             0.0000000000
     18966       153  CHL1      O3            -29.8012373438       13.2843125836      -18.5248114970  MEMB      153             0.0000000000
     18967       153  CHL1      H3'           -28.9902104204       13.2552838626      -19.0343271674  MEMB      153             0.0000000000
     18968       153  CHL1      C4            -30.6533670821       12.9222998953      -16.2892446053  MEMB      153             0.0000000000
     18969       153  CHL1      H4A           -31.1523067456       13.9091772820      -16.3842641182  MEMB      153             0.0000000000
     18970       153  CHL1      H4B           -31.4081113888       12.1855861623      -16.6413339521  MEMB      153             0.0000000000
     18971       153  CHL1      C5            -30.2482949298       12.6631739763      -14.8566976377  MEMB      153             0.0000000000
     18972       153  CHL1      C6            -30.8009905330       11.7028400430      -14.1114385103  MEMB      153             0.0000000000
     18973       153  CHL1      H6            -31.5944126163       11.0600927510      -14.5266582954  MEMB      153             0.0000000000
     18974       153  CHL1      C7            -30.4515980296       11.5176971970      -12.6709495840  MEMB      153             0.0000000000
     18975       153  CHL1      H7A           -31.3514681600       11.2039690939      -12.1029856930  MEMB      153             0.0000000000
     18976       153  CHL1      H7B           -29.7040279566       10.6984687770      -12.6008369918  MEMB      153             0.0000000000
     18977       153  CHL1      C8            -29.8309246135       12.8078066752      -12.0525712588  MEMB      153             0.0000000000
     18978       153  CHL1      H8            -30.6201662725       13.5917461732      -12.0261124316  MEMB      153             0.0000000000
     18979       153  CHL1      C14           -29.3222151014       12.5451138956      -10.6619657753  MEMB      153             0.0000000000
     18980       153  CHL1      H14           -28.4999877214       11.7857996723      -10.7628848786  MEMB      153             0.0000000000
     18981       153  CHL1      C15           -30.3573662863       11.9219078203       -9.7705480840  MEMB      153             0.0000000000
     18982       153  CHL1      H15A          -31.3599478488       12.3841215672       -9.8764664141  MEMB      153             0.0000000000
     18983       153  CHL1      H15B          -30.3883250306       10.9163977467      -10.1900449431  MEMB      153             0.0000000000
     18984       153  CHL1      C16           -29.7930712449       12.0697827812       -8.3664887014  MEMB      153             0.0000000000
     18985       153  CHL1      H16A          -30.5926858728       12.5067023346       -7.7305227314  MEMB      153             0.0000000000
     18986       153  CHL1      H16B          -29.4418101629       11.1136857267       -7.9308647298  MEMB      153             0.0000000000
     18987       153  CHL1      C17           -28.5803613506       13.0267627354       -8.4718187996  MEMB      153             0.0000000000
     18988       153  CHL1      H17           -27.6682072910       12.3870649672       -8.5358102940  MEMB      153             0.0000000000
     18989       153  CHL1      C13           -28.7369075747       13.6892383546       -9.8725580517  MEMB      153             0.0000000000
     18990       153  CHL1      C18           -29.8010532352       14.8010986642       -9.7628860633  MEMB      153             0.0000000000
     18991       153  CHL1      H18A          -30.7785672494       14.4291570734       -9.4053749857  MEMB      153             0.0000000000
     18992       153  CHL1      H18B          -29.4843461242       15.5319210060       -9.0073254108  MEMB      153             0.0000000000
     18993       153  CHL1      H18C          -29.9530898246       15.3107515533      -10.7354348126  MEMB      153             0.0000000000
     18994       153  CHL1      C12           -27.4639554003       14.0874044416      -10.6501456697  MEMB      153             0.0000000000
     18995       153  CHL1      H12A          -27.0210833356       15.0085135121      -10.2215242368  MEMB      153             0.0000000000
     18996       153  CHL1      H12B          -26.7154376165       13.2712210662      -10.5571714788  MEMB      153             0.0000000000
     18997       153  CHL1      C11           -27.7580523062       14.3172875915      -12.1617831532  MEMB      153             0.0000000000
     18998       153  CHL1      H11A          -28.2647802861       15.2903600878      -12.1886158395  MEMB      153             0.0000000000
     18999       153  CHL1      H11B          -26.8002991801       14.4150250253      -12.7118168666  MEMB      153             0.0000000000
     19000       153  CHL1      C9            -28.6600703744       13.2573440763      -12.8867562958  MEMB      153             0.0000000000
     19001       153  CHL1      H9            -28.0109247503       12.3488253813      -12.9832120641  MEMB      153             0.0000000000
     19002       153  CHL1      C10           -29.1380736405       13.5873240917      -14.3288620039  MEMB      153             0.0000000000
     19003       153  CHL1      C19           -29.8079148667       14.9862978237      -14.3786678402  MEMB      153             0.0000000000
     19004       153  CHL1      H19A          -29.2516874568       15.7378568117      -13.8146196498  MEMB      153             0.0000000000
     19005       153  CHL1      H19B          -29.8853520535       15.3634899619      -15.4184080797  MEMB      153             0.0000000000
     19006       153  CHL1      H19C          -30.8321020343       14.9707054380      -13.9480945274  MEMB      153             0.0000000000
     19007       153  CHL1      C1            -27.9295105621       13.4107107075      -15.2871459684  MEMB      153             0.0000000000
     19008       153  CHL1      H1A           -27.0860557677       14.0452873914      -14.9544188583  MEMB      153             0.0000000000
     19009       153  CHL1      H1B           -27.5913954465       12.3477689492      -15.2138623221  MEMB      153             0.0000000000
     19010       153  CHL1      C2            -28.2456340055       13.6779854948      -16.7639027864  MEMB      153             0.0000000000
     19011       153  CHL1      H2A           -27.3514942328       13.4224305728      -17.3732352507  MEMB      153             0.0000000000
     19012       153  CHL1      H2B           -28.4655002468       14.7519251175      -16.9256908891  MEMB      153             0.0000000000
     19013       153  CHL1      C20           -28.4701506264       13.8617986491       -7.1843781792  MEMB      153             0.0000000000
     19014       153  CHL1      H20           -29.3801212830       14.4963565203       -7.0755941640  MEMB      153             0.0000000000
     19015       153  CHL1      C21           -27.2497426816       14.7940125147       -7.2692992793  MEMB      153             0.0000000000
     19016       153  CHL1      H21A          -27.3532572085       15.5059751805       -8.1103716079  MEMB      153             0.0000000000
     19017       153  CHL1      H21B          -26.3194960246       14.2036751339       -7.4007953573  MEMB      153             0.0000000000
     19018       153  CHL1      H21C          -27.1661901603       15.3872159585       -6.3326067278  MEMB      153             0.0000000000
     19019       153  CHL1      C22           -28.3635162887       12.9954458821       -5.8886709346  MEMB      153             0.0000000000
     19020       153  CHL1      H22A          -27.8648389859       12.0281813765       -6.1150024231  MEMB      153             0.0000000000
     19021       153  CHL1      H22B          -27.7031809611       13.5386580487       -5.1764459098  MEMB      153             0.0000000000
     19022       153  CHL1      C23           -29.6822163224       12.7371845044       -5.1254976201  MEMB      153             0.0000000000
     19023       153  CHL1      H23A          -30.2717963654       13.6769634870       -5.0571652858  MEMB      153             0.0000000000
     19024       153  CHL1      H23B          -30.2870483923       11.9930989253       -5.6858109697  MEMB      153             0.0000000000
     19025       153  CHL1      C24           -29.4445408095       12.2112152260       -3.6962985110  MEMB      153             0.0000000000
     19026       153  CHL1      H24A          -28.8323344647       11.2924159732       -3.7781982131  MEMB      153             0.0000000000
     19027       153  CHL1      H24B          -28.8626842478       12.9499821915       -3.1074744822  MEMB      153             0.0000000000
     19028       153  CHL1      C25           -30.7351113752       11.8288850191       -2.9478635433  MEMB      153             0.0000000000
     19029       153  CHL1      H25           -31.4398673030       12.6945163679       -2.9752311520  MEMB      153             0.0000000000
     19030       153  CHL1      C26           -31.3669824874       10.6414762847       -3.6671311852  MEMB      153             0.0000000000
     19031       153  CHL1      H26A          -32.0420820674       10.9878456977       -4.4761726714  MEMB      153             0.0000000000
     19032       153  CHL1      H26B          -30.5837152814        9.9906873821       -4.1007514998  MEMB      153             0.0000000000
     19033       153  CHL1      H26C          -31.9347728118        9.9981450426       -2.9747387374  MEMB      153             0.0000000000
     19034       153  CHL1      C27           -30.4873295022       11.4743718356       -1.4716531656  MEMB      153             0.0000000000
     19035       153  CHL1      H27A          -29.9165148882       10.5252201627       -1.3898541516  MEMB      153             0.0000000000
     19036       153  CHL1      H27B          -29.9210240702       12.2797449791       -0.9626549600  MEMB      153             0.0000000000
     19037       153  CHL1      H27C          -31.4559955645       11.3432466458       -0.9404484457  MEMB      153             0.0000000000
     19038       154  23SM      N              13.5661305927       28.6963173410      -27.8368515699  MEMB      154             0.0000000000
     19039       154  23SM      C15            12.1812616197       28.8445899983      -27.3183801051  MEMB      154             0.0000000000
     19040       154  23SM      H15A           12.1702758033       28.7976897601      -26.2303122348  MEMB      154             0.0000000000
     19041       154  23SM      H15B           11.4963548932       28.1120079396      -27.7216078891  MEMB      154             0.0000000000
     19042       154  23SM      H15C           11.7627105666       29.8268006887      -27.5472108828  MEMB      154             0.0000000000
     19043       154  23SM      C14            13.9971305885       27.3030625438      -27.5160902065  MEMB      154             0.0000000000
     19044       154  23SM      H14A           13.1520927020       26.6343849138      -27.5391446160  MEMB      154             0.0000000000
     19045       154  23SM      H14B           14.3480853843       27.2503496561      -26.4808655576  MEMB      154             0.0000000000
     19046       154  23SM      H14C           14.7879664300       26.9421104777      -28.1472364902  MEMB      154             0.0000000000
     19047       154  23SM      C13            13.5158156361       28.8884567235      -29.3257841936  MEMB      154             0.0000000000
     19048       154  23SM      H13A           13.1077394597       29.8655264568      -29.5746700222  MEMB      154             0.0000000000
     19049       154  23SM      H13B           12.8314976033       28.1656293568      -29.7699323021  MEMB      154             0.0000000000
     19050       154  23SM      H13C           14.4754969634       28.7775580299      -29.8217254299  MEMB      154             0.0000000000
     19051       154  23SM      C12            14.4688596937       29.6876458659      -27.1097833887  MEMB      154             0.0000000000
     19052       154  23SM      H12A           14.0946864749       30.6903285502      -27.2921877638  MEMB      154             0.0000000000
     19053       154  23SM      H12B           15.4614569428       29.6131248553      -27.5245074411  MEMB      154             0.0000000000
     19054       154  23SM      C11            14.6232268807       29.5148098374      -25.5630769671  MEMB      154             0.0000000000
     19055       154  23SM      H11A           13.6204816263       29.6343586908      -25.0925755777  MEMB      154             0.0000000000
     19056       154  23SM      H11B           15.2449406676       30.3516568398      -25.1706716696  MEMB      154             0.0000000000
     19057       154  23SM      P              16.4993082240       27.9570917606      -24.4249188675  MEMB      154             0.0000000000
     19058       154  23SM      O13            17.1482837789       26.7703684142      -25.0227234626  MEMB      154             0.0000000000
     19059       154  23SM      O14            17.3064463719       29.1899327043      -24.4285136870  MEMB      154             0.0000000000
     19060       154  23SM      O11            15.9796443423       27.6261152666      -22.9634826019  MEMB      154             0.0000000000
     19061       154  23SM      O12            15.1566769653       28.2371139449      -25.2124222196  MEMB      154             0.0000000000
     19062       154  23SM      C1S            14.5741422277       27.5725711684      -22.6634991058  MEMB      154             0.0000000000
     19063       154  23SM      H1S            14.0882800722       26.7102812872      -23.1746747083  MEMB      154             0.0000000000
     19064       154  23SM      H1T            14.0472472628       28.4813456358      -23.0318775556  MEMB      154             0.0000000000
     19065       154  23SM      NF             14.7170799554       28.6723420255      -20.4427290845  MEMB      154             0.0000000000
     19066       154  23SM      HNF            15.5883441633       28.6224701001      -19.9761484040  MEMB      154             0.0000000000
     19067       154  23SM      C2S            14.2786983068       27.4628829793      -21.1263019444  MEMB      154             0.0000000000
     19068       154  23SM      H2S            13.1772403250       27.3787177946      -20.9925274805  MEMB      154             0.0000000000
     19069       154  23SM      C3S            14.9445308322       26.1846653963      -20.5326404436  MEMB      154             0.0000000000
     19070       154  23SM      H3S            16.0496470865       26.2661823418      -20.6286952897  MEMB      154             0.0000000000
     19071       154  23SM      O3             14.5422633591       24.9644584304      -21.1810264025  MEMB      154             0.0000000000
     19072       154  23SM      HO3            14.0118893580       25.2455101713      -21.9281924621  MEMB      154             0.0000000000
     19073       154  23SM      C4S            14.5812210848       26.0683217615      -19.0750390528  MEMB      154             0.0000000000
     19074       154  23SM      H4S            13.5293337950       25.8193305264      -18.8754243551  MEMB      154             0.0000000000
     19075       154  23SM      C5S            15.4329181697       26.1955015709      -18.0395606861  MEMB      154             0.0000000000
     19076       154  23SM      H5S            16.5006976759       26.3718112067      -18.2491967285  MEMB      154             0.0000000000
     19077       154  23SM      C6S            15.0478433314       26.0803483639      -16.5857176316  MEMB      154             0.0000000000
     19078       154  23SM      H6S            14.1285600877       26.6795286846      -16.3847383079  MEMB      154             0.0000000000
     19079       154  23SM      H6T            15.8493252906       26.5076509630      -15.9436548402  MEMB      154             0.0000000000
     19080       154  23SM      C7S            14.7880688141       24.6292717887      -16.1315590580  MEMB      154             0.0000000000
     19081       154  23SM      H7S            15.7101735170       24.0124121818      -16.1834690910  MEMB      154             0.0000000000
     19082       154  23SM      H7T            14.0410718932       24.1722251687      -16.8220095354  MEMB      154             0.0000000000
     19083       154  23SM      C8S            14.1898521613       24.5502472291      -14.7224787860  MEMB      154             0.0000000000
     19084       154  23SM      H8S            13.5451305549       23.6419168211      -14.6340991374  MEMB      154             0.0000000000
     19085       154  23SM      H8T            13.5410358731       25.4365581808      -14.5738154057  MEMB      154             0.0000000000
     19086       154  23SM      C9S            15.1821263152       24.5473077248      -13.5657062346  MEMB      154             0.0000000000
     19087       154  23SM      H9S            15.9013395691       25.3873261831      -13.6828267623  MEMB      154             0.0000000000
     19088       154  23SM      H9T            15.7570778854       23.5941062855      -13.5623034375  MEMB      154             0.0000000000
     19089       154  23SM      C10S           14.3939982996       24.7138993434      -12.2636285873  MEMB      154             0.0000000000
     19090       154  23SM      H10S           13.7001583609       23.8488526984      -12.1480328779  MEMB      154             0.0000000000
     19091       154  23SM      H10T           13.7746715277       25.6384874425      -12.3221445562  MEMB      154             0.0000000000
     19092       154  23SM      C11S           15.2695331606       24.8091342658      -11.0288477165  MEMB      154             0.0000000000
     19093       154  23SM      H11S           15.9010805353       25.7259687995      -11.0697103409  MEMB      154             0.0000000000
     19094       154  23SM      H11T           15.9514461219       23.9270945050      -10.9975515847  MEMB      154             0.0000000000
     19095       154  23SM      C12S           14.4325007373       24.8199613073       -9.7504147219  MEMB      154             0.0000000000
     19096       154  23SM      H12S           13.8294842422       23.8874739847       -9.7003081244  MEMB      154             0.0000000000
     19097       154  23SM      H12T           13.7360099976       25.6896288559       -9.7347499822  MEMB      154             0.0000000000
     19098       154  23SM      C13S           15.3986581408       24.9004005415       -8.5871379594  MEMB      154             0.0000000000
     19099       154  23SM      H13S           15.8454305122       25.9178268638       -8.5957175347  MEMB      154             0.0000000000
     19100       154  23SM      H13T           16.2051614905       24.1452347593       -8.7427833001  MEMB      154             0.0000000000
     19101       154  23SM      C14S           14.8421055254       24.6900481756       -7.1968685009  MEMB      154             0.0000000000
     19102       154  23SM      H14S           14.3972336492       23.6784999626       -7.0768841574  MEMB      154             0.0000000000
     19103       154  23SM      H14T           14.0697424320       25.4570461682       -6.9671156636  MEMB      154             0.0000000000
     19104       154  23SM      C15S           16.0291371485       24.7905854072       -6.2533378021  MEMB      154             0.0000000000
     19105       154  23SM      H15S           16.5824887550       25.7430848705       -6.4234517187  MEMB      154             0.0000000000
     19106       154  23SM      H15T           16.7202410219       23.9468812302       -6.4831913347  MEMB      154             0.0000000000
     19107       154  23SM      C16S           15.6029390503       24.6997113686       -4.8129538768  MEMB      154             0.0000000000
     19108       154  23SM      H16S           14.8454003517       23.8889603882       -4.6962489481  MEMB      154             0.0000000000
     19109       154  23SM      H16T           15.1350307353       25.6617912365       -4.5097814997  MEMB      154             0.0000000000
     19110       154  23SM      C17S           16.7719590732       24.4110409249       -3.8967676071  MEMB      154             0.0000000000
     19111       154  23SM      H17S           17.6273924856       25.0885221927       -4.1093397703  MEMB      154             0.0000000000
     19112       154  23SM      H17T           17.1067931811       23.3654578064       -4.0702631174  MEMB      154             0.0000000000
     19113       154  23SM      C18S           16.2828427665       24.5866081419       -2.4797802531  MEMB      154             0.0000000000
     19114       154  23SM      H18S           17.0382214476       24.3280408901       -1.7153604886  MEMB      154             0.0000000000
     19115       154  23SM      H18T           15.3836695092       23.9530535746       -2.3655591965  MEMB      154             0.0000000000
     19116       154  23SM      H18U           15.9344743722       25.6207242267       -2.2953981981  MEMB      154             0.0000000000
     19117       154  23SM      C1F            14.1719614480       29.8474280883      -20.7405949573  MEMB      154             0.0000000000
     19118       154  23SM      OF             13.0730198574       29.9069314580      -21.2707346927  MEMB      154             0.0000000000
     19119       154  23SM      C2F            15.0054005252       31.0706551705      -20.4976751988  MEMB      154             0.0000000000
     19120       154  23SM      H2F            14.8947801003       31.7155129090      -21.3998428249  MEMB      154             0.0000000000
     19121       154  23SM      H2G            16.0787367960       30.8037436594      -20.3981800662  MEMB      154             0.0000000000
     19122       154  23SM      C3F            14.5406634237       31.8963441521      -19.2782808940  MEMB      154             0.0000000000
     19123       154  23SM      H3F            13.4313156190       31.8493567120      -19.1929631909  MEMB      154             0.0000000000
     19124       154  23SM      H3G            14.8260746314       32.9543556319      -19.4892538678  MEMB      154             0.0000000000
     19125       154  23SM      C4F            15.1952061747       31.5046013714      -17.9479070341  MEMB      154             0.0000000000
     19126       154  23SM      H4F            16.2933539576       31.3809816346      -18.0824455986  MEMB      154             0.0000000000
     19127       154  23SM      H4G            14.7842963915       30.5372518561      -17.5792196268  MEMB      154             0.0000000000
     19128       154  23SM      C5F            14.9754927642       32.5773402729      -16.8773729945  MEMB      154             0.0000000000
     19129       154  23SM      H5F            13.8856112762       32.5577729785      -16.6517996826  MEMB      154             0.0000000000
     19130       154  23SM      H5G            15.2003257634       33.5993686270      -17.2494621912  MEMB      154             0.0000000000
     19131       154  23SM      C6F            15.7646930614       32.2924502221      -15.5977830177  MEMB      154             0.0000000000
     19132       154  23SM      H6F            16.5584692059       33.0543625292      -15.4255367927  MEMB      154             0.0000000000
     19133       154  23SM      H6G            16.2959574128       31.3240682175      -15.7271762324  MEMB      154             0.0000000000
     19134       154  23SM      C7F            14.7632704295       32.2409452826      -14.4476731663  MEMB      154             0.0000000000
     19135       154  23SM      H7F            13.8210222991       31.8039650333      -14.8501664262  MEMB      154             0.0000000000
     19136       154  23SM      H7G            14.5377347738       33.2756645274      -14.1044687617  MEMB      154             0.0000000000
     19137       154  23SM      C8F            15.0542206098       31.3660345007      -13.2291989882  MEMB      154             0.0000000000
     19138       154  23SM      H8F            14.0821910444       30.9001659659      -12.9793591488  MEMB      154             0.0000000000
     19139       154  23SM      H8G            15.3210494714       32.0328576261      -12.3864101638  MEMB      154             0.0000000000
     19140       154  23SM      C9F            16.0625066046       30.2185383833      -13.3357815690  MEMB      154             0.0000000000
     19141       154  23SM      H9F            17.0768565239       30.6635108197      -13.4149779436  MEMB      154             0.0000000000
     19142       154  23SM      H9G            15.8778645537       29.6226574639      -14.2587942164  MEMB      154             0.0000000000
     19143       154  23SM      C10F           15.9831342020       29.3051352168      -12.0909822319  MEMB      154             0.0000000000
     19144       154  23SM      H10F           16.7611910030       28.5147391992      -12.1484640602  MEMB      154             0.0000000000
     19145       154  23SM      H10G           14.9993844490       28.7854832381      -12.0811949215  MEMB      154             0.0000000000
     19146       154  23SM      C11F           16.1436941319       30.0671844056      -10.7621297514  MEMB      154             0.0000000000
     19147       154  23SM      H11F           15.4610063634       30.9404993314      -10.6991727210  MEMB      154             0.0000000000
     19148       154  23SM      H11G           17.1849775497       30.4570909858      -10.7130752997  MEMB      154             0.0000000000
     19149       154  23SM      C12F           15.8350169965       29.2305504792       -9.5142382231  MEMB      154             0.0000000000
     19150       154  23SM      H12F           16.2134221102       28.1945319222       -9.6521652482  MEMB      154             0.0000000000
     19151       154  23SM      H12G           14.7406423552       29.1592029059       -9.3664557633  MEMB      154             0.0000000000
     19152       154  23SM      C13F           16.4887119617       29.8597797106       -8.2842646170  MEMB      154             0.0000000000
     19153       154  23SM      H13F           15.9716066826       30.7917337339       -7.9754351138  MEMB      154             0.0000000000
     19154       154  23SM      H13G           17.5165922871       30.1633645407       -8.5849454853  MEMB      154             0.0000000000
     19155       154  23SM      C14F           16.6509474342       28.8996852978       -7.1088278389  MEMB      154             0.0000000000
     19156       154  23SM      H14F           17.0862475947       27.9475751768       -7.4866102100  MEMB      154             0.0000000000
     19157       154  23SM      H14G           15.6819530826       28.6523012911       -6.6280963076  MEMB      154             0.0000000000
     19158       154  23SM      C15F           17.6301904873       29.5047277021       -6.1096959920  MEMB      154             0.0000000000
     19159       154  23SM      H15F           17.1342540210       30.3140670981       -5.5335103060  MEMB      154             0.0000000000
     19160       154  23SM      H15G           18.4579153857       29.9793391963       -6.6880611815  MEMB      154             0.0000000000
     19161       154  23SM      C16F           18.2767062560       28.4708151280       -5.1904939115  MEMB      154             0.0000000000
     19162       154  23SM      H16F           19.3763448351       28.5486942529       -5.3580955200  MEMB      154             0.0000000000
     19163       154  23SM      H16G           17.9656551255       27.4417394372       -5.4618010290  MEMB      154             0.0000000000
     19164       154  23SM      C17F           18.0330125908       28.7494254733       -3.7124374906  MEMB      154             0.0000000000
     19165       154  23SM      H17F           17.9868937302       29.8482884889       -3.5994198247  MEMB      154             0.0000000000
     19166       154  23SM      H17G           18.9002038163       28.3719943776       -3.1262488098  MEMB      154             0.0000000000
     19167       154  23SM      C18F           16.7758858441       28.1202513240       -3.1310760026  MEMB      154             0.0000000000
     19168       154  23SM      H18F           16.8595494680       27.0357302754       -3.3070555289  MEMB      154             0.0000000000
     19169       154  23SM      H18G           15.8715875844       28.4694100693       -3.6761568723  MEMB      154             0.0000000000
     19170       154  23SM      C19F           16.6031514914       28.4283227479       -1.6333666713  MEMB      154             0.0000000000
     19171       154  23SM      H19F           17.5110222592       28.2066473199       -1.0373253495  MEMB      154             0.0000000000
     19172       154  23SM      H19G           15.7943046898       27.7598742023       -1.2758015828  MEMB      154             0.0000000000
     19173       154  23SM      C20F           16.1455425390       29.8795809574       -1.4448036767  MEMB      154             0.0000000000
     19174       154  23SM      H20F           15.0421307542       29.8348586331       -1.3941357017  MEMB      154             0.0000000000
     19175       154  23SM      H20G           16.3756827283       30.4214252099       -2.3891271645  MEMB      154             0.0000000000
     19176       154  23SM      C21F           16.7285557531       30.7369403303       -0.2941981577  MEMB      154             0.0000000000
     19177       154  23SM      H21F           17.8240353544       30.7768967822       -0.3465309019  MEMB      154             0.0000000000
     19178       154  23SM      H21G           16.5414965991       30.2978045974        0.7020378099  MEMB      154             0.0000000000
     19179       154  23SM      C22F           16.1617234713       32.1700279483       -0.4326125341  MEMB      154             0.0000000000
     19180       154  23SM      H22F           15.1187762788       32.1697198109       -0.0648023670  MEMB      154             0.0000000000
     19181       154  23SM      H22G           16.1295979075       32.3756858403       -1.5278469558  MEMB      154             0.0000000000
     19182       154  23SM      C23F           16.8563677688       33.3677017960        0.2203260752  MEMB      154             0.0000000000
     19183       154  23SM      H23F           16.4152365897       34.3071565161       -0.1801980341  MEMB      154             0.0000000000
     19184       154  23SM      H23G           17.9382334000       33.3848866503       -0.0137642153  MEMB      154             0.0000000000
     19185       154  23SM      H23H           16.7341407071       33.3727701041        1.3231533234  MEMB      154             0.0000000000
     19186       155  CHL1      C3             -0.2847036944       32.5766512797      -17.3530747812  MEMB      155             0.0000000000
     19187       155  CHL1      H3             -0.5707066826       33.6400444347      -17.1738582367  MEMB      155             0.0000000000
     19188       155  CHL1      O3             -0.3115707589       32.3075782232      -18.7554559552  MEMB      155             0.0000000000
     19189       155  CHL1      H3'            -0.9555308815       32.9044347347      -19.1840074862  MEMB      155             0.0000000000
     19190       155  CHL1      C4              1.1492881074       32.3348172460      -16.8210690847  MEMB      155             0.0000000000
     19191       155  CHL1      H4A             1.4736096477       31.3385387706      -17.1915897069  MEMB      155             0.0000000000
     19192       155  CHL1      H4B             1.8154024343       33.0743313222      -17.3202307298  MEMB      155             0.0000000000
     19193       155  CHL1      C5              1.2853552924       32.3897242458      -15.3054599911  MEMB      155             0.0000000000
     19194       155  CHL1      C6              2.1785455455       33.1918460110      -14.7004541153  MEMB      155             0.0000000000
     19195       155  CHL1      H6              2.8468184808       33.8120890725      -15.3138525574  MEMB      155             0.0000000000
     19196       155  CHL1      C7              2.3931888025       33.2506517138      -13.2103375372  MEMB      155             0.0000000000
     19197       155  CHL1      H7A             3.4784762577       33.2299507065      -12.9682290243  MEMB      155             0.0000000000
     19198       155  CHL1      H7B             1.9875948350       34.2114758829      -12.8249101234  MEMB      155             0.0000000000
     19199       155  CHL1      C8              1.7045007793       32.0960776571      -12.4318878017  MEMB      155             0.0000000000
     19200       155  CHL1      H8              2.3147858067       31.1755625593      -12.5601876408  MEMB      155             0.0000000000
     19201       155  CHL1      C14             1.6125760321       32.4414310590      -10.9437277282  MEMB      155             0.0000000000
     19202       155  CHL1      H14             0.9377944184       33.3372319286      -10.9037368248  MEMB      155             0.0000000000
     19203       155  CHL1      C15             2.8800907649       32.8902687269      -10.1992803762  MEMB      155             0.0000000000
     19204       155  CHL1      H15A            3.7054480347       32.1725264071      -10.3931580844  MEMB      155             0.0000000000
     19205       155  CHL1      H15B            3.2014671631       33.9080734880      -10.4977910442  MEMB      155             0.0000000000
     19206       155  CHL1      C16             2.4607485021       32.8304718715       -8.7206917839  MEMB      155             0.0000000000
     19207       155  CHL1      H16A            3.2358179615       32.2830031913       -8.1444176297  MEMB      155             0.0000000000
     19208       155  CHL1      H16B            2.3496041859       33.8483040911       -8.2917501081  MEMB      155             0.0000000000
     19209       155  CHL1      C17             1.0851685619       32.0869431285       -8.6599992411  MEMB      155             0.0000000000
     19210       155  CHL1      H17             0.3038961574       32.8821517876       -8.6491715299  MEMB      155             0.0000000000
     19211       155  CHL1      C13             0.9464508700       31.3969724930      -10.0444076389  MEMB      155             0.0000000000
     19212       155  CHL1      C18             1.7210727604       30.0568528253      -10.0388376770  MEMB      155             0.0000000000
     19213       155  CHL1      H18A            1.8159490634       29.6512443815      -11.0651152242  MEMB      155             0.0000000000
     19214       155  CHL1      H18B            2.7364876890       30.1776656446       -9.6140735805  MEMB      155             0.0000000000
     19215       155  CHL1      H18C            1.1718121394       29.3081944383       -9.4310254692  MEMB      155             0.0000000000
     19216       155  CHL1      C12            -0.4740368024       31.2247875888      -10.5887481211  MEMB      155             0.0000000000
     19217       155  CHL1      H12A           -1.0595683710       30.4825236549      -10.0176436888  MEMB      155             0.0000000000
     19218       155  CHL1      H12B           -0.9482578540       32.2139451584      -10.4717656172  MEMB      155             0.0000000000
     19219       155  CHL1      C11            -0.5097427129       30.8619431163      -12.0886505611  MEMB      155             0.0000000000
     19220       155  CHL1      H11A           -0.1162683433       29.8317979559      -12.1879196493  MEMB      155             0.0000000000
     19221       155  CHL1      H11B           -1.5702664602       30.8529379493      -12.4167673552  MEMB      155             0.0000000000
     19222       155  CHL1      C9              0.2939366687       31.8495065798      -12.9870527000  MEMB      155             0.0000000000
     19223       155  CHL1      H9             -0.2327086059       32.8315752740      -12.8859921417  MEMB      155             0.0000000000
     19224       155  CHL1      C10             0.2781801219       31.5286168813      -14.5158255494  MEMB      155             0.0000000000
     19225       155  CHL1      C19             0.6708135688       30.0432669241      -14.7043587682  MEMB      155             0.0000000000
     19226       155  CHL1      H19A           -0.1052973804       29.3814475534      -14.2682958010  MEMB      155             0.0000000000
     19227       155  CHL1      H19B            0.7524834163       29.7801983750      -15.7770588775  MEMB      155             0.0000000000
     19228       155  CHL1      H19C            1.6411134373       29.8233210278      -14.2142747292  MEMB      155             0.0000000000
     19229       155  CHL1      C1             -1.1484869423       31.7854086656      -15.0971957758  MEMB      155             0.0000000000
     19230       155  CHL1      H1A            -1.8556029401       31.0701069288      -14.6275225549  MEMB      155             0.0000000000
     19231       155  CHL1      H1B            -1.4700194405       32.8091140580      -14.8044686763  MEMB      155             0.0000000000
     19232       155  CHL1      C2             -1.2783335685       31.6575300464      -16.6316103633  MEMB      155             0.0000000000
     19233       155  CHL1      H2A            -2.3123377894       31.9156420691      -16.9477738166  MEMB      155             0.0000000000
     19234       155  CHL1      H2B            -1.0936169549       30.6028456017      -16.9314656065  MEMB      155             0.0000000000
     19235       155  CHL1      C20             0.9183358239       31.2754705407       -7.3593707508  MEMB      155             0.0000000000
     19236       155  CHL1      H20             1.6865041701       30.4683672884       -7.3543384809  MEMB      155             0.0000000000
     19237       155  CHL1      C21            -0.4626068266       30.6054728098       -7.2640964453  MEMB      155             0.0000000000
     19238       155  CHL1      H21A           -0.5586966717       30.0313525095       -6.3184110349  MEMB      155             0.0000000000
     19239       155  CHL1      H21B           -0.6547373482       29.9082346077       -8.0991786867  MEMB      155             0.0000000000
     19240       155  CHL1      H21C           -1.2362304378       31.3953621127       -7.2653372928  MEMB      155             0.0000000000
     19241       155  CHL1      C22             1.1505810711       32.1289571349       -6.0756732241  MEMB      155             0.0000000000
     19242       155  CHL1      H22A            1.2254313962       31.4304054758       -5.2133610806  MEMB      155             0.0000000000
     19243       155  CHL1      H22B            2.1276494741       32.6500824291       -6.1482064458  MEMB      155             0.0000000000
     19244       155  CHL1      C23             0.0606163276       33.1745087164       -5.7485526205  MEMB      155             0.0000000000
     19245       155  CHL1      H23A           -0.1926953160       33.7397188642       -6.6732218607  MEMB      155             0.0000000000
     19246       155  CHL1      H23B           -0.8698923105       32.6700712250       -5.4082631426  MEMB      155             0.0000000000
     19247       155  CHL1      C24             0.5075892202       34.2034413046       -4.6928382387  MEMB      155             0.0000000000
     19248       155  CHL1      H24A            1.4333843807       34.6930629401       -5.0687552611  MEMB      155             0.0000000000
     19249       155  CHL1      H24B           -0.2524965740       35.0028621507       -4.6069410567  MEMB      155             0.0000000000
     19250       155  CHL1      C25             0.7943298250       33.6489066310       -3.2803895824  MEMB      155             0.0000000000
     19251       155  CHL1      H25             1.4704603098       32.7677460666       -3.3859932575  MEMB      155             0.0000000000
     19252       155  CHL1      C26             1.5365604347       34.7132300785       -2.4570520420  MEMB      155             0.0000000000
     19253       155  CHL1      H26A            1.8078761500       34.3091140479       -1.4638523845  MEMB      155             0.0000000000
     19254       155  CHL1      H26B            2.4694694385       35.0252167810       -2.9707319752  MEMB      155             0.0000000000
     19255       155  CHL1      H26C            0.8954574939       35.6072691329       -2.3121714996  MEMB      155             0.0000000000
     19256       155  CHL1      C27            -0.4736856926       33.1901162802       -2.5343068695  MEMB      155             0.0000000000
     19257       155  CHL1      H27A           -1.0453649485       32.4513153770       -3.1331959635  MEMB      155             0.0000000000
     19258       155  CHL1      H27B           -0.1979483936       32.7180880752       -1.5665753052  MEMB      155             0.0000000000
     19259       155  CHL1      H27C           -1.1312324774       34.0562711446       -2.3117153473  MEMB      155             0.0000000000
     19260       156  CHL1      C3            -29.4413511906      -14.0447236251      -17.5709669193  MEMB      156             0.0000000000
     19261       156  CHL1      H3            -28.6968927886      -14.8642655892      -17.6963760125  MEMB      156             0.0000000000
     19262       156  CHL1      O3            -29.9185356750      -13.6331198872      -18.8441155391  MEMB      156             0.0000000000
     19263       156  CHL1      H3'           -29.2941319222      -14.0048530343      -19.4924062790  MEMB      156             0.0000000000
     19264       156  CHL1      C4            -30.6374889465      -14.5583190012      -16.7614599071  MEMB      156             0.0000000000
     19265       156  CHL1      H4A           -31.4214076909      -13.7794654418      -16.8260589817  MEMB      156             0.0000000000
     19266       156  CHL1      H4B           -31.0331502963      -15.4550342821      -17.2902616619  MEMB      156             0.0000000000
     19267       156  CHL1      C5            -30.3885431720      -14.8229902953      -15.2945176286  MEMB      156             0.0000000000
     19268       156  CHL1      C6            -30.7280526218      -15.9936842168      -14.7316169483  MEMB      156             0.0000000000
     19269       156  CHL1      H6            -31.2093852844      -16.7741209199      -15.3361585163  MEMB      156             0.0000000000
     19270       156  CHL1      C7            -30.6040982052      -16.2761303970      -13.2670394066  MEMB      156             0.0000000000
     19271       156  CHL1      H7A           -31.5494299405      -16.7146381563      -12.8744703072  MEMB      156             0.0000000000
     19272       156  CHL1      H7B           -29.7934602510      -17.0149887823      -13.0868893222  MEMB      156             0.0000000000
     19273       156  CHL1      C8            -30.3046983637      -14.9946392781      -12.4509522163  MEMB      156             0.0000000000
     19274       156  CHL1      H8            -31.2507337437      -14.4225149371      -12.3576753165  MEMB      156             0.0000000000
     19275       156  CHL1      C14           -29.8416435267      -15.3919889734      -11.0766212996  MEMB      156             0.0000000000
     19276       156  CHL1      H14           -28.8612391795      -15.9208932613      -11.2163959067  MEMB      156             0.0000000000
     19277       156  CHL1      C15           -30.7297676535      -16.3773811340      -10.3029802558  MEMB      156             0.0000000000
     19278       156  CHL1      H15A          -31.7820383748      -16.0183447217      -10.3189294867  MEMB      156             0.0000000000
     19279       156  CHL1      H15B          -30.6904280230      -17.4104105218      -10.7002766929  MEMB      156             0.0000000000
     19280       156  CHL1      C16           -30.1574933068      -16.2825686022       -8.8944774460  MEMB      156             0.0000000000
     19281       156  CHL1      H16A          -30.9882075381      -16.1723856211       -8.1654805705  MEMB      156             0.0000000000
     19282       156  CHL1      H16B          -29.5683574474      -17.1867585070       -8.6327203008  MEMB      156             0.0000000000
     19283       156  CHL1      C17           -29.2186213338      -15.0299296469       -8.8856308967  MEMB      156             0.0000000000
     19284       156  CHL1      H17           -28.1779684631      -15.4124296742       -9.0354398796  MEMB      156             0.0000000000
     19285       156  CHL1      C13           -29.5543400377      -14.2290465735      -10.1388840323  MEMB      156             0.0000000000
     19286       156  CHL1      C18           -30.8204661805      -13.3766295145       -9.8606720045  MEMB      156             0.0000000000
     19287       156  CHL1      H18A          -31.6101721564      -13.9758782268       -9.3645781161  MEMB      156             0.0000000000
     19288       156  CHL1      H18B          -30.5806588529      -12.5190955875       -9.2013280443  MEMB      156             0.0000000000
     19289       156  CHL1      H18C          -31.2343115350      -12.9576674983      -10.7955041332  MEMB      156             0.0000000000
     19290       156  CHL1      C12           -28.4108871859      -13.4101714239      -10.7611045163  MEMB      156             0.0000000000
     19291       156  CHL1      H12A          -28.1639792113      -12.5291277568      -10.1416843842  MEMB      156             0.0000000000
     19292       156  CHL1      H12B          -27.5106335291      -14.0558549634      -10.7965898265  MEMB      156             0.0000000000
     19293       156  CHL1      C11           -28.7710257546      -12.9501407310      -12.1858330226  MEMB      156             0.0000000000
     19294       156  CHL1      H11A          -29.5645757919      -12.1834332542      -12.0682465855  MEMB      156             0.0000000000
     19295       156  CHL1      H11B          -27.8927734496      -12.4504612932      -12.6413480444  MEMB      156             0.0000000000
     19296       156  CHL1      C9            -29.2421620902      -14.1129283120      -13.1178131333  MEMB      156             0.0000000000
     19297       156  CHL1      H9            -28.3487977288      -14.7715070776      -13.2494816983  MEMB      156             0.0000000000
     19298       156  CHL1      C10           -29.6758237363      -13.6780243406      -14.5430059437  MEMB      156             0.0000000000
     19299       156  CHL1      C19           -30.6303569219      -12.4767014319      -14.3885456156  MEMB      156             0.0000000000
     19300       156  CHL1      H19A          -31.4084718803      -12.7460743237      -13.6590560336  MEMB      156             0.0000000000
     19301       156  CHL1      H19B          -30.1090871911      -11.5719641742      -14.0186887133  MEMB      156             0.0000000000
     19302       156  CHL1      H19C          -31.1294236400      -12.1972397552      -15.3338234026  MEMB      156             0.0000000000
     19303       156  CHL1      C1            -28.4510843075      -13.2551442868      -15.3933596218  MEMB      156             0.0000000000
     19304       156  CHL1      H1A           -27.9365653250      -12.4055919286      -14.8942416692  MEMB      156             0.0000000000
     19305       156  CHL1      H1B           -27.7537625942      -14.1203358131      -15.4265019369  MEMB      156             0.0000000000
     19306       156  CHL1      C2            -28.7896077633      -12.8650577748      -16.8466172371  MEMB      156             0.0000000000
     19307       156  CHL1      H2A           -27.8761106979      -12.5427865425      -17.3865137680  MEMB      156             0.0000000000
     19308       156  CHL1      H2B           -29.4967792755      -12.0086636315      -16.8291883228  MEMB      156             0.0000000000
     19309       156  CHL1      C20           -29.2493219088      -14.3399807913       -7.5416153573  MEMB      156             0.0000000000
     19310       156  CHL1      H20           -30.2904357174      -14.0219661821       -7.2943933956  MEMB      156             0.0000000000
     19311       156  CHL1      C21           -28.3466027506      -13.0994001072       -7.4936957948  MEMB      156             0.0000000000
     19312       156  CHL1      H21A          -28.3069731470      -12.6520367605       -6.4794740844  MEMB      156             0.0000000000
     19313       156  CHL1      H21B          -28.7374184939      -12.3123129232       -8.1650896816  MEMB      156             0.0000000000
     19314       156  CHL1      H21C          -27.3153795787      -13.3640014702       -7.8010845432  MEMB      156             0.0000000000
     19315       156  CHL1      C22           -28.8044933831      -15.3669277434       -6.5054122910  MEMB      156             0.0000000000
     19316       156  CHL1      H22A          -29.5157899051      -16.2239006253       -6.4847455956  MEMB      156             0.0000000000
     19317       156  CHL1      H22B          -27.7964776865      -15.7737016416       -6.7475611679  MEMB      156             0.0000000000
     19318       156  CHL1      C23           -28.8093098438      -14.7853662731       -5.1195796270  MEMB      156             0.0000000000
     19319       156  CHL1      H23A          -27.8847769050      -14.1871572549       -4.9602200558  MEMB      156             0.0000000000
     19320       156  CHL1      H23B          -29.6846594831      -14.1007391017       -5.0228013191  MEMB      156             0.0000000000
     19321       156  CHL1      C24           -28.9203577377      -15.9383161854       -4.1408429266  MEMB      156             0.0000000000
     19322       156  CHL1      H24A          -29.9423818483      -16.3761456047       -4.2151547506  MEMB      156             0.0000000000
     19323       156  CHL1      H24B          -28.1835567789      -16.7312183343       -4.3966506931  MEMB      156             0.0000000000
     19324       156  CHL1      C25           -28.6835966976      -15.4680026232       -2.7239552336  MEMB      156             0.0000000000
     19325       156  CHL1      H25           -28.8288549094      -16.3626509005       -2.0795163239  MEMB      156             0.0000000000
     19326       156  CHL1      C26           -27.2149619521      -15.0169456916       -2.5696831262  MEMB      156             0.0000000000
     19327       156  CHL1      H26A          -27.0946715030      -13.9478395634       -2.8304655207  MEMB      156             0.0000000000
     19328       156  CHL1      H26B          -26.8410276022      -15.1764976785       -1.5372413802  MEMB      156             0.0000000000
     19329       156  CHL1      H26C          -26.5666198039      -15.5911345896       -3.2695970708  MEMB      156             0.0000000000
     19330       156  CHL1      C27           -29.7637738002      -14.4116190600       -2.4085606748  MEMB      156             0.0000000000
     19331       156  CHL1      H27A          -29.5954051546      -13.4678472821       -2.9654214158  MEMB      156             0.0000000000
     19332       156  CHL1      H27B          -30.7681787801      -14.7872253873       -2.6978593452  MEMB      156             0.0000000000
     19333       156  CHL1      H27C          -29.7929086244      -14.1590630785       -1.3430051905  MEMB      156             0.0000000000
     19334       157  DOPE      N              25.4520786012      -20.5969261272      -21.8826192525  MEMB      157             0.0000000000
     19335       157  DOPE      HN1            24.4604715174      -20.6971770435      -22.1179940667  MEMB      157             0.0000000000
     19336       157  DOPE      HN2            25.5279862532      -19.7093752114      -21.3227406552  MEMB      157             0.0000000000
     19337       157  DOPE      HN3            26.0266295526      -20.4403770050      -22.7375198225  MEMB      157             0.0000000000
     19338       157  DOPE      C12            26.0019593924      -21.6372713322      -20.9786392210  MEMB      157             0.0000000000
     19339       157  DOPE      H12A           26.4245002981      -22.4689465654      -21.5730806121  MEMB      157             0.0000000000
     19340       157  DOPE      H12B           25.1743453635      -21.9985144365      -20.3336260918  MEMB      157             0.0000000000
     19341       157  DOPE      C11            27.0532601381      -20.9165590461      -20.1518785410  MEMB      157             0.0000000000
     19342       157  DOPE      H11A           27.9684301567      -20.8068818152      -20.7469747419  MEMB      157             0.0000000000
     19343       157  DOPE      H11B           27.3460899534      -21.5459174686      -19.2773953013  MEMB      157             0.0000000000
     19344       157  DOPE      P              25.6892732194      -19.4179522985      -18.5485071891  MEMB      157             0.0000000000
     19345       157  DOPE      O13            24.4876350479      -20.2321260825      -18.7838184726  MEMB      157             0.0000000000
     19346       157  DOPE      O14            25.5305956294      -17.9736599991      -18.2842224066  MEMB      157             0.0000000000
     19347       157  DOPE      O11            26.6456683058      -20.0859481191      -17.4926757464  MEMB      157             0.0000000000
     19348       157  DOPE      O12            26.6219043951      -19.5872748362      -19.8127878153  MEMB      157             0.0000000000
     19349       157  DOPE      C1             27.9865083891      -19.5528327395      -17.5092699437  MEMB      157             0.0000000000
     19350       157  DOPE      HA             28.0115224517      -18.4423347183      -17.6219534744  MEMB      157             0.0000000000
     19351       157  DOPE      HB             28.5942916250      -19.9803694449      -18.3384927063  MEMB      157             0.0000000000
     19352       157  DOPE      C2             28.7121619503      -19.8602557100      -16.1991036815  MEMB      157             0.0000000000
     19353       157  DOPE      HS             29.8040501879      -19.6810113156      -16.3581714380  MEMB      157             0.0000000000
     19354       157  DOPE      O21            28.5119843667      -21.1917490817      -15.7172069041  MEMB      157             0.0000000000
     19355       157  DOPE      C21            28.7089714271      -22.1230814392      -16.6098517376  MEMB      157             0.0000000000
     19356       157  DOPE      O22            29.4391528853      -22.0453404144      -17.5887492585  MEMB      157             0.0000000000
     19357       157  DOPE      C22            27.9552404151      -23.3752543435      -16.1224935998  MEMB      157             0.0000000000
     19358       157  DOPE      H2R            28.3555829370      -23.5957467949      -15.1117686614  MEMB      157             0.0000000000
     19359       157  DOPE      H2S            28.1901573744      -24.2095581581      -16.8078935248  MEMB      157             0.0000000000
     19360       157  DOPE      C3             28.2335869602      -18.8865787151      -15.1131686438  MEMB      157             0.0000000000
     19361       157  DOPE      HX             28.5611986745      -17.8602568214      -15.3780210859  MEMB      157             0.0000000000
     19362       157  DOPE      HY             28.7806608171      -19.2436200022      -14.2275883035  MEMB      157             0.0000000000
     19363       157  DOPE      O31            26.8182927623      -18.8431233625      -14.8804592808  MEMB      157             0.0000000000
     19364       157  DOPE      C31            26.3807290859      -19.5951189438      -13.8840466883  MEMB      157             0.0000000000
     19365       157  DOPE      O32            27.0021376606      -20.4769394281      -13.3183274266  MEMB      157             0.0000000000
     19366       157  DOPE      C32            25.0137757797      -19.0680202667      -13.4353895456  MEMB      157             0.0000000000
     19367       157  DOPE      H2X            24.7021527085      -18.2666036407      -14.1369366184  MEMB      157             0.0000000000
     19368       157  DOPE      H2Y            24.2866038189      -19.8990458712      -13.5087644301  MEMB      157             0.0000000000
     19369       157  DOPE      C23            26.4199369680      -23.2654670344      -15.9322708361  MEMB      157             0.0000000000
     19370       157  DOPE      H3R            25.9440587530      -23.0538571817      -16.9170577858  MEMB      157             0.0000000000
     19371       157  DOPE      H3S            26.1643338482      -22.4149497099      -15.2646228938  MEMB      157             0.0000000000
     19372       157  DOPE      C24            25.8198208251      -24.5679960939      -15.3586586310  MEMB      157             0.0000000000
     19373       157  DOPE      H4R            26.2407415940      -25.4265280995      -15.9325563964  MEMB      157             0.0000000000
     19374       157  DOPE      H4S            24.7234357719      -24.5591373255      -15.5524405585  MEMB      157             0.0000000000
     19375       157  DOPE      C25            26.0594739890      -24.8289365288      -13.8553153608  MEMB      157             0.0000000000
     19376       157  DOPE      H5R            27.1417618667      -24.9914935109      -13.6767554869  MEMB      157             0.0000000000
     19377       157  DOPE      H5S            25.5409982365      -25.7820556354      -13.5950973324  MEMB      157             0.0000000000
     19378       157  DOPE      C26            25.5542933659      -23.7310911881      -12.8993790887  MEMB      157             0.0000000000
     19379       157  DOPE      H6R            24.5081292713      -23.4833964580      -13.1905918400  MEMB      157             0.0000000000
     19380       157  DOPE      H6S            26.1506178436      -22.8056639983      -13.0352274364  MEMB      157             0.0000000000
     19381       157  DOPE      C27            25.5677293209      -24.1776527859      -11.4191816612  MEMB      157             0.0000000000
     19382       157  DOPE      H7R            25.3244565512      -25.2646656104      -11.4092361241  MEMB      157             0.0000000000
     19383       157  DOPE      H7S            24.7513369416      -23.6685572802      -10.8577134652  MEMB      157             0.0000000000
     19384       157  DOPE      C28            26.9181476556      -23.9709505771      -10.6773659772  MEMB      157             0.0000000000
     19385       157  DOPE      H8R            27.6839566179      -24.5272785862      -11.2618473280  MEMB      157             0.0000000000
     19386       157  DOPE      H8S            26.8513080069      -24.4738166886       -9.6902099217  MEMB      157             0.0000000000
     19387       157  DOPE      C29            27.3626347736      -22.5304126636      -10.5244228115  MEMB      157             0.0000000000
     19388       157  DOPE      H9R            27.3883648843      -21.9815668552      -11.4789670300  MEMB      157             0.0000000000
     19389       157  DOPE      C210           27.7797720700      -21.8538322607       -9.4284704137  MEMB      157             0.0000000000
     19390       157  DOPE      H10R           28.0116868491      -20.7928987045       -9.5552719225  MEMB      157             0.0000000000
     19391       157  DOPE      C211           27.9369006491      -22.3157849314       -7.9968273148  MEMB      157             0.0000000000
     19392       157  DOPE      H11R           28.9495084552      -22.5928364335       -7.7382959344  MEMB      157             0.0000000000
     19393       157  DOPE      H11S           27.5039574768      -23.3141911493       -7.8942416795  MEMB      157             0.0000000000
     19394       157  DOPE      C212           27.6057533686      -21.3305910437       -6.8397170887  MEMB      157             0.0000000000
     19395       157  DOPE      H12R           27.9374091881      -21.8148850833       -5.9041251132  MEMB      157             0.0000000000
     19396       157  DOPE      H12S           26.5203424593      -21.1910052972       -6.7015971161  MEMB      157             0.0000000000
     19397       157  DOPE      C213           28.2412717628      -19.9359296318       -6.9458199574  MEMB      157             0.0000000000
     19398       157  DOPE      H13R           27.9655757371      -19.4771271993       -7.9207327671  MEMB      157             0.0000000000
     19399       157  DOPE      H13S           29.3438241335      -20.0496954783       -6.9040410810  MEMB      157             0.0000000000
     19400       157  DOPE      C214           27.7977310981      -18.9731295898       -5.8332961402  MEMB      157             0.0000000000
     19401       157  DOPE      H14R           26.6857496692      -18.9160484852       -5.8097830646  MEMB      157             0.0000000000
     19402       157  DOPE      H14S           28.1829730468      -17.9542024419       -6.0649699492  MEMB      157             0.0000000000
     19403       157  DOPE      C215           28.3234687032      -19.3967159936       -4.4569253990  MEMB      157             0.0000000000
     19404       157  DOPE      H15R           29.4210924287      -19.5617489312       -4.5366892807  MEMB      157             0.0000000000
     19405       157  DOPE      H15S           27.8549104815      -20.3628889052       -4.1680987520  MEMB      157             0.0000000000
     19406       157  DOPE      C216           28.0380242775      -18.3563751977       -3.3686871092  MEMB      157             0.0000000000
     19407       157  DOPE      H16R           26.9598460352      -18.0948603527       -3.4371650758  MEMB      157             0.0000000000
     19408       157  DOPE      H16S           28.6187250230      -17.4335648954       -3.5873460032  MEMB      157             0.0000000000
     19409       157  DOPE      C217           28.3449681607      -18.8093439121       -1.9291722918  MEMB      157             0.0000000000
     19410       157  DOPE      H17R           27.5177089453      -19.4281851818       -1.5353167762  MEMB      157             0.0000000000
     19411       157  DOPE      H17S           28.3677399612      -17.9035037719       -1.2843987936  MEMB      157             0.0000000000
     19412       157  DOPE      C218           29.6306522521      -19.6075338783       -1.7414789361  MEMB      157             0.0000000000
     19413       157  DOPE      H18R           29.7931786595      -20.3465540312       -2.5507763483  MEMB      157             0.0000000000
     19414       157  DOPE      H18S           29.5936832796      -20.1801538225       -0.7872817679  MEMB      157             0.0000000000
     19415       157  DOPE      H18T           30.5022332833      -18.9229534369       -1.7198891188  MEMB      157             0.0000000000
     19416       157  DOPE      C33            25.0395011736      -18.4886712195      -11.9966394540  MEMB      157             0.0000000000
     19417       157  DOPE      H3X            24.1342128030      -17.8544696054      -11.8505383772  MEMB      157             0.0000000000
     19418       157  DOPE      H3Y            25.9324541584      -17.8428179837      -11.8403576205  MEMB      157             0.0000000000
     19419       157  DOPE      C34            24.9993579111      -19.5736186080      -10.9225084928  MEMB      157             0.0000000000
     19420       157  DOPE      H4X            24.1663832470      -20.2745082626      -11.1518911532  MEMB      157             0.0000000000
     19421       157  DOPE      H4Y            25.9404920480      -20.1639994190      -10.9522088725  MEMB      157             0.0000000000
     19422       157  DOPE      C35            24.8057885017      -19.0044702313       -9.5112378958  MEMB      157             0.0000000000
     19423       157  DOPE      H5X            23.8091097352      -18.5215185807       -9.4287085253  MEMB      157             0.0000000000
     19424       157  DOPE      H5Y            25.5777182557      -18.2258750212       -9.3097254779  MEMB      157             0.0000000000
     19425       157  DOPE      C36            24.9514132179      -20.0960011306       -8.4500748883  MEMB      157             0.0000000000
     19426       157  DOPE      H6X            24.6565604364      -19.7186864390       -7.4466742626  MEMB      157             0.0000000000
     19427       157  DOPE      H6Y            26.0276290349      -20.3033981584       -8.4221906470  MEMB      157             0.0000000000
     19428       157  DOPE      C37            24.2263192346      -21.4140662631       -8.7854864603  MEMB      157             0.0000000000
     19429       157  DOPE      H7X            23.2875437013      -21.1430513377       -9.2951807268  MEMB      157             0.0000000000
     19430       157  DOPE      H7Y            24.7919580701      -21.9493642822       -9.5743547289  MEMB      157             0.0000000000
     19431       157  DOPE      C38            23.8887680195      -22.2923651129       -7.5530361041  MEMB      157             0.0000000000
     19432       157  DOPE      H8X            23.0161060007      -22.9447349708       -7.7544677216  MEMB      157             0.0000000000
     19433       157  DOPE      H8Y            23.6543008291      -21.6772221817       -6.6592280497  MEMB      157             0.0000000000
     19434       157  DOPE      C39            25.0675240662      -23.1751264086       -7.3771251511  MEMB      157             0.0000000000
     19435       157  DOPE      H9X            25.5947670665      -23.2960529835       -8.3295289820  MEMB      157             0.0000000000
     19436       157  DOPE      C310           25.6335769309      -23.7387148115       -6.3072497701  MEMB      157             0.0000000000
     19437       157  DOPE      H10X           26.5168195141      -24.3740628400       -6.4693281321  MEMB      157             0.0000000000
     19438       157  DOPE      C311           25.2197208727      -23.6516289275       -4.8857197234  MEMB      157             0.0000000000
     19439       157  DOPE      H11X           24.1875309075      -23.2483638708       -4.7769872891  MEMB      157             0.0000000000
     19440       157  DOPE      H11Y           25.2651124425      -24.6624813548       -4.4235566014  MEMB      157             0.0000000000
     19441       157  DOPE      C312           26.1805787186      -22.8234884996       -4.0843054861  MEMB      157             0.0000000000
     19442       157  DOPE      H12X           26.1698823058      -21.7907250596       -4.4884036747  MEMB      157             0.0000000000
     19443       157  DOPE      H12Y           27.2204172828      -23.1882661815       -4.1878808560  MEMB      157             0.0000000000
     19444       157  DOPE      C313           25.7039227805      -22.8813670019       -2.6427003314  MEMB      157             0.0000000000
     19445       157  DOPE      H13X           24.5934342584      -22.9913282613       -2.6409017563  MEMB      157             0.0000000000
     19446       157  DOPE      H13Y           26.1350162581      -23.7713431450       -2.1338051440  MEMB      157             0.0000000000
     19447       157  DOPE      C314           26.0192648839      -21.5860896996       -1.9314627452  MEMB      157             0.0000000000
     19448       157  DOPE      H14X           27.1039481209      -21.3962505343       -2.0884451292  MEMB      157             0.0000000000
     19449       157  DOPE      H14Y           25.8600377442      -21.7162046146       -0.8384263857  MEMB      157             0.0000000000
     19450       157  DOPE      C315           25.1627817048      -20.4220703245       -2.4835033183  MEMB      157             0.0000000000
     19451       157  DOPE      H15X           24.9853160469      -20.4759508702       -3.5752604932  MEMB      157             0.0000000000
     19452       157  DOPE      H15Y           25.7200493924      -19.4838120373       -2.3077314945  MEMB      157             0.0000000000
     19453       157  DOPE      C316           23.8235126428      -20.2789138967       -1.7566599704  MEMB      157             0.0000000000
     19454       157  DOPE      H16X           24.1304085348      -20.5112866764       -0.7231682522  MEMB      157             0.0000000000
     19455       157  DOPE      H16Y           23.0635947191      -21.0212750889       -2.0583112702  MEMB      157             0.0000000000
     19456       157  DOPE      C317           23.2918930564      -18.8420999516       -1.6684345959  MEMB      157             0.0000000000
     19457       157  DOPE      H17X           22.7729824132      -18.6981115292       -0.6951195511  MEMB      157             0.0000000000
     19458       157  DOPE      H17Y           24.1890724049      -18.2218308984       -1.6551741022  MEMB      157             0.0000000000
     19459       157  DOPE      C318           22.4216633580      -18.2862430414       -2.7832476927  MEMB      157             0.0000000000
     19460       157  DOPE      H18X           21.4679155343      -18.8199154028       -2.8276838763  MEMB      157             0.0000000000
     19461       157  DOPE      H18Y           22.1817681055      -17.2154960360       -2.6121910404  MEMB      157             0.0000000000
     19462       157  DOPE      H18Z           22.9325649232      -18.3829480945       -3.7639843431  MEMB      157             0.0000000000
     19463       158  CHL1      C3             30.8100257992      -13.2220738409      -17.5750847864  MEMB      158             0.0000000000
     19464       158  CHL1      H3             31.6626814915      -13.9413826234      -17.5347691545  MEMB      158             0.0000000000
     19465       158  CHL1      O3             30.3380824439      -13.1699728465      -18.9145326881  MEMB      158             0.0000000000
     19466       158  CHL1      H3'            29.9900724989      -14.0738649471      -19.0800198375  MEMB      158             0.0000000000
     19467       158  CHL1      C4             29.6543016888      -13.6919914649      -16.6867768467  MEMB      158             0.0000000000
     19468       158  CHL1      H4A            28.8331070045      -12.9455108459      -16.7311060792  MEMB      158             0.0000000000
     19469       158  CHL1      H4B            29.2410956035      -14.6423419066      -17.0933142472  MEMB      158             0.0000000000
     19470       158  CHL1      C5             30.1734583346      -13.8429334604      -15.2809987260  MEMB      158             0.0000000000
     19471       158  CHL1      C6             30.1939723938      -15.0512052133      -14.7190818103  MEMB      158             0.0000000000
     19472       158  CHL1      H6             29.7713480033      -15.9191084527      -15.2499481694  MEMB      158             0.0000000000
     19473       158  CHL1      C7             30.7119068804      -15.2696147679      -13.3415075089  MEMB      158             0.0000000000
     19474       158  CHL1      H7A            30.0333594631      -15.9497619834      -12.8118854191  MEMB      158             0.0000000000
     19475       158  CHL1      H7B            31.7226291344      -15.7341832978      -13.3739205311  MEMB      158             0.0000000000
     19476       158  CHL1      C8             30.7557629400      -13.9704133212      -12.5149579869  MEMB      158             0.0000000000
     19477       158  CHL1      H8             29.7012693507      -13.6791237054      -12.3085072045  MEMB      158             0.0000000000
     19478       158  CHL1      C14            31.4633682724      -14.2336275854      -11.2118734883  MEMB      158             0.0000000000
     19479       158  CHL1      H14            32.5281013271      -14.4781702973      -11.4661556633  MEMB      158             0.0000000000
     19480       158  CHL1      C15            30.9565181283      -15.4340221481      -10.4221402808  MEMB      158             0.0000000000
     19481       158  CHL1      H15A           29.8443220056      -15.4270406890      -10.4067430167  MEMB      158             0.0000000000
     19482       158  CHL1      H15B           31.3066843584      -16.3720268285      -10.8883038399  MEMB      158             0.0000000000
     19483       158  CHL1      C16            31.5074149774      -15.1976298592       -9.0203424269  MEMB      158             0.0000000000
     19484       158  CHL1      H16A           30.6608506653      -15.3013789240       -8.3091633574  MEMB      158             0.0000000000
     19485       158  CHL1      H16B           32.3094304840      -15.9040631883       -8.7339924203  MEMB      158             0.0000000000
     19486       158  CHL1      C17            32.1101766475      -13.7612256774       -9.0086077539  MEMB      158             0.0000000000
     19487       158  CHL1      H17            33.2009711381      -13.8805856539       -9.2152776030  MEMB      158             0.0000000000
     19488       158  CHL1      C13            31.5095250843      -13.0605765509      -10.2461282286  MEMB      158             0.0000000000
     19489       158  CHL1      C18            30.0848068407      -12.5724155779       -9.8727161363  MEMB      158             0.0000000000
     19490       158  CHL1      H18A           29.5021968463      -13.3716310594       -9.3725787908  MEMB      158             0.0000000000
     19491       158  CHL1      H18B           30.1496488315      -11.7041055170       -9.1855612709  MEMB      158             0.0000000000
     19492       158  CHL1      H18C           29.5173003536      -12.2451599469      -10.7631135044  MEMB      158             0.0000000000
     19493       158  CHL1      C12            32.3355830392      -11.9688143752      -10.9567393069  MEMB      158             0.0000000000
     19494       158  CHL1      H12A           32.3818703960      -11.0537855019      -10.3367951310  MEMB      158             0.0000000000
     19495       158  CHL1      H12B           33.3718513067      -12.3410591511      -11.1047408229  MEMB      158             0.0000000000
     19496       158  CHL1      C11            31.7243104261      -11.6186647943      -12.3389232587  MEMB      158             0.0000000000
     19497       158  CHL1      H11A           30.7674179921      -11.1020109573      -12.1180685489  MEMB      158             0.0000000000
     19498       158  CHL1      H11B           32.3804042222      -10.8945841816      -12.8610405620  MEMB      158             0.0000000000
     19499       158  CHL1      C9             31.4618146245      -12.8529304447      -13.2656317149  MEMB      158             0.0000000000
     19500       158  CHL1      H9             32.4716085074      -13.2612500505      -13.5185991558  MEMB      158             0.0000000000
     19501       158  CHL1      C10            30.7536235387      -12.5650063925      -14.6229108780  MEMB      158             0.0000000000
     19502       158  CHL1      C19            29.5656072504      -11.6097691440      -14.3445347627  MEMB      158             0.0000000000
     19503       158  CHL1      H19A           28.9583201327      -11.4257641781      -15.2507313124  MEMB      158             0.0000000000
     19504       158  CHL1      H19B           28.9084300835      -12.0380266777      -13.5586558968  MEMB      158             0.0000000000
     19505       158  CHL1      H19C           29.9271990531      -10.6173330821      -14.0054809261  MEMB      158             0.0000000000
     19506       158  CHL1      C1             31.7659954448      -11.9136194670      -15.6109476253  MEMB      158             0.0000000000
     19507       158  CHL1      H1A            31.9999980801      -10.8901011037      -15.2476097125  MEMB      158             0.0000000000
     19508       158  CHL1      H1B            32.7139751041      -12.4975201255      -15.5878874539  MEMB      158             0.0000000000
     19509       158  CHL1      C2             31.2898969565      -11.8444479512      -17.0788286329  MEMB      158             0.0000000000
     19510       158  CHL1      H2A            32.1033956523      -11.4567393805      -17.7276634722  MEMB      158             0.0000000000
     19511       158  CHL1      H2B            30.4382361753      -11.1335296360      -17.1254512406  MEMB      158             0.0000000000
     19512       158  CHL1      C20            31.9655342046      -13.1277184267       -7.6232944061  MEMB      158             0.0000000000
     19513       158  CHL1      H20            30.8962591292      -12.8807509037       -7.4307437122  MEMB      158             0.0000000000
     19514       158  CHL1      C21            32.7994991307      -11.8391906515       -7.5434261564  MEMB      158             0.0000000000
     19515       158  CHL1      H21A           32.7240352100      -11.3802065672       -6.5369828305  MEMB      158             0.0000000000
     19516       158  CHL1      H21B           32.4478502818      -11.0860385128       -8.2736343362  MEMB      158             0.0000000000
     19517       158  CHL1      H21C           33.8635232816      -12.0846113526       -7.7306913528  MEMB      158             0.0000000000
     19518       158  CHL1      C22            32.3970316590      -14.1170712220       -6.5121819837  MEMB      158             0.0000000000
     19519       158  CHL1      H22A           31.7547855766      -15.0253508970       -6.5375251090  MEMB      158             0.0000000000
     19520       158  CHL1      H22B           33.4459494153      -14.4466384992       -6.6788287328  MEMB      158             0.0000000000
     19521       158  CHL1      C23            32.2429229200      -13.5653671603       -5.0951529667  MEMB      158             0.0000000000
     19522       158  CHL1      H23A           33.0562826665      -12.8372564927       -4.8794732033  MEMB      158             0.0000000000
     19523       158  CHL1      H23B           31.2703818949      -13.0311195268       -5.0138482760  MEMB      158             0.0000000000
     19524       158  CHL1      C24            32.2766925537      -14.7055175971       -4.0766398860  MEMB      158             0.0000000000
     19525       158  CHL1      H24A           31.4374349370      -15.4113098555       -4.2601708029  MEMB      158             0.0000000000
     19526       158  CHL1      H24B           33.2294175948      -15.2665216894       -4.2267251212  MEMB      158             0.0000000000
     19527       158  CHL1      C25            32.2204378621      -14.2131840878       -2.6256699780  MEMB      158             0.0000000000
     19528       158  CHL1      H25            33.0176807697      -13.4370283274       -2.5156387282  MEMB      158             0.0000000000
     19529       158  CHL1      C26            30.8628698395      -13.6090948136       -2.2320051275  MEMB      158             0.0000000000
     19530       158  CHL1      H26A           30.9026130161      -13.2416152546       -1.1838024272  MEMB      158             0.0000000000
     19531       158  CHL1      H26B           30.5925513476      -12.7618303308       -2.8947290497  MEMB      158             0.0000000000
     19532       158  CHL1      H26C           30.0686673203      -14.3848970278       -2.2987233067  MEMB      158             0.0000000000
     19533       158  CHL1      C27            32.5471660088      -15.3608366780       -1.6804162302  MEMB      158             0.0000000000
     19534       158  CHL1      H27A           32.8454627003      -14.9388478822       -0.6991077307  MEMB      158             0.0000000000
     19535       158  CHL1      H27B           31.6838498082      -16.0418580780       -1.5387719412  MEMB      158             0.0000000000
     19536       158  CHL1      H27C           33.3937536418      -15.9543580691       -2.0864930257  MEMB      158             0.0000000000
     19537       159  23SM      N             -26.7043495800      -21.2851299545      -28.1602161149  MEMB      159             0.0000000000
     19538       159  23SM      C15           -28.0533563217      -20.6627464938      -28.3651766866  MEMB      159             0.0000000000
     19539       159  23SM      H15A          -27.9854015611      -19.5826289952      -28.4196764243  MEMB      159             0.0000000000
     19540       159  23SM      H15B          -28.7464559827      -20.9267280573      -27.5786592296  MEMB      159             0.0000000000
     19541       159  23SM      H15C          -28.4565252851      -20.9878278490      -29.3207483881  MEMB      159             0.0000000000
     19542       159  23SM      C14           -26.8045989095      -22.7649075324      -28.2796357538  MEMB      159             0.0000000000
     19543       159  23SM      H14A          -25.8232947830      -23.1986369893      -28.1385232668  MEMB      159             0.0000000000
     19544       159  23SM      H14B          -27.1496568341      -23.0198601153      -29.2790271254  MEMB      159             0.0000000000
     19545       159  23SM      H14C          -27.5112683231      -23.1277163969      -27.5455414266  MEMB      159             0.0000000000
     19546       159  23SM      C13           -25.7904868096      -20.8098414673      -29.2372897913  MEMB      159             0.0000000000
     19547       159  23SM      H13A          -24.8750321009      -21.3864079648      -29.2989605699  MEMB      159             0.0000000000
     19548       159  23SM      H13B          -25.5155069577      -19.7701237410      -29.1010165662  MEMB      159             0.0000000000
     19549       159  23SM      H13C          -26.3119320801      -20.8770137117      -30.1895595436  MEMB      159             0.0000000000
     19550       159  23SM      C12           -26.1651537514      -20.8929104500      -26.8273990023  MEMB      159             0.0000000000
     19551       159  23SM      H12A          -26.1099331915      -19.8053127912      -26.7581359299  MEMB      159             0.0000000000
     19552       159  23SM      H12B          -25.1281650758      -21.2213163463      -26.7014406309  MEMB      159             0.0000000000
     19553       159  23SM      C11           -26.9212315582      -21.3860017466      -25.6018642404  MEMB      159             0.0000000000
     19554       159  23SM      H11A          -26.7181705732      -22.4604254526      -25.3989959701  MEMB      159             0.0000000000
     19555       159  23SM      H11B          -28.0189795931      -21.2539312663      -25.7096895709  MEMB      159             0.0000000000
     19556       159  23SM      P             -25.0425682011      -20.6119698523      -23.9330110940  MEMB      159             0.0000000000
     19557       159  23SM      O13           -24.0871154284      -20.6444480082      -25.0732775458  MEMB      159             0.0000000000
     19558       159  23SM      O14           -24.9327420180      -19.4738886138      -22.9943565196  MEMB      159             0.0000000000
     19559       159  23SM      O11           -25.0642800241      -22.0207626802      -23.1891877052  MEMB      159             0.0000000000
     19560       159  23SM      O12           -26.4945389108      -20.5676356197      -24.5410264243  MEMB      159             0.0000000000
     19561       159  23SM      C1S           -24.1797324928      -22.3795090247      -22.1160844860  MEMB      159             0.0000000000
     19562       159  23SM      H1S           -23.4453814622      -21.5659681772      -21.8953971377  MEMB      159             0.0000000000
     19563       159  23SM      H1T           -23.5873267809      -23.2685470784      -22.4082895437  MEMB      159             0.0000000000
     19564       159  23SM      NF            -24.0653072905      -23.0777708536      -19.6791010323  MEMB      159             0.0000000000
     19565       159  23SM      HNF           -24.2508860996      -23.8904418120      -19.1300417364  MEMB      159             0.0000000000
     19566       159  23SM      C2S           -24.9553182452      -22.7208320277      -20.7872460543  MEMB      159             0.0000000000
     19567       159  23SM      H2S           -25.5032028883      -21.7880349577      -20.5157085719  MEMB      159             0.0000000000
     19568       159  23SM      C3S           -26.0053585167      -23.8609390339      -20.9549591055  MEMB      159             0.0000000000
     19569       159  23SM      H3S           -25.4712144132      -24.8346783290      -21.0253280249  MEMB      159             0.0000000000
     19570       159  23SM      O3            -26.8358609174      -23.7920769659      -22.1101814461  MEMB      159             0.0000000000
     19571       159  23SM      HO3           -26.3877922495      -23.1394473746      -22.6701514572  MEMB      159             0.0000000000
     19572       159  23SM      C4S           -26.8696844024      -23.8865650718      -19.7069617804  MEMB      159             0.0000000000
     19573       159  23SM      H4S           -27.5080590898      -23.0024851295      -19.5962952641  MEMB      159             0.0000000000
     19574       159  23SM      C5S           -26.8776485278      -24.8224050960      -18.7310373978  MEMB      159             0.0000000000
     19575       159  23SM      H5S           -26.1784217253      -25.6743943792      -18.8036291751  MEMB      159             0.0000000000
     19576       159  23SM      C6S           -27.7539184232      -24.8122552029      -17.4926419484  MEMB      159             0.0000000000
     19577       159  23SM      H6S           -28.1522684301      -25.8416076606      -17.3194461299  MEMB      159             0.0000000000
     19578       159  23SM      H6T           -28.6331710680      -24.1438478799      -17.6155265977  MEMB      159             0.0000000000
     19579       159  23SM      C7S           -27.0478901604      -24.3796944252      -16.1829280791  MEMB      159             0.0000000000
     19580       159  23SM      H7S           -26.7215656068      -23.3204914258      -16.2493144552  MEMB      159             0.0000000000
     19581       159  23SM      H7T           -26.1274731916      -24.9854597962      -16.0812214413  MEMB      159             0.0000000000
     19582       159  23SM      C8S           -27.9428780012      -24.5561682985      -14.9293537642  MEMB      159             0.0000000000
     19583       159  23SM      H8S           -28.2434575225      -25.6269967833      -14.8424654979  MEMB      159             0.0000000000
     19584       159  23SM      H8T           -28.8636970116      -23.9522889656      -15.0615024612  MEMB      159             0.0000000000
     19585       159  23SM      C9S           -27.2705960759      -24.1348743521      -13.6104817231  MEMB      159             0.0000000000
     19586       159  23SM      H9S           -26.7196471704      -23.1778739816      -13.7366371868  MEMB      159             0.0000000000
     19587       159  23SM      H9T           -26.5123680033      -24.9084811428      -13.3701580428  MEMB      159             0.0000000000
     19588       159  23SM      C10S          -28.2109386211      -24.0028493495      -12.3941624861  MEMB      159             0.0000000000
     19589       159  23SM      H10S          -29.0482229097      -24.7322751017      -12.4713566262  MEMB      159             0.0000000000
     19590       159  23SM      H10T          -28.6339191813      -22.9762348144      -12.3607199072  MEMB      159             0.0000000000
     19591       159  23SM      C11S          -27.4107785317      -24.3005808473      -11.1237989728  MEMB      159             0.0000000000
     19592       159  23SM      H11S          -26.4330741642      -23.7679496962      -11.1982973733  MEMB      159             0.0000000000
     19593       159  23SM      H11T          -27.2270681892      -25.3971139750      -11.1228435588  MEMB      159             0.0000000000
     19594       159  23SM      C12S          -28.0009327529      -23.9538754989       -9.7593083013  MEMB      159             0.0000000000
     19595       159  23SM      H12S          -28.9929941676      -24.4321075162       -9.6233756691  MEMB      159             0.0000000000
     19596       159  23SM      H12T          -28.1240728262      -22.8516577500       -9.6658494933  MEMB      159             0.0000000000
     19597       159  23SM      C13S          -27.0268245216      -24.4454663506       -8.6763758110  MEMB      159             0.0000000000
     19598       159  23SM      H13S          -26.1019519626      -23.8246471105       -8.7302024166  MEMB      159             0.0000000000
     19599       159  23SM      H13T          -26.7316252239      -25.4993299058       -8.8832094762  MEMB      159             0.0000000000
     19600       159  23SM      C14S          -27.5909984570      -24.3732658031       -7.2628822949  MEMB      159             0.0000000000
     19601       159  23SM      H14S          -28.3827377697      -25.1431088724       -7.1217228922  MEMB      159             0.0000000000
     19602       159  23SM      H14T          -28.0584570158      -23.3724448366       -7.1186170702  MEMB      159             0.0000000000
     19603       159  23SM      C15S          -26.4989416247      -24.5450201591       -6.2048203143  MEMB      159             0.0000000000
     19604       159  23SM      H15S          -26.9157402104      -24.1087862616       -5.2742437980  MEMB      159             0.0000000000
     19605       159  23SM      H15T          -25.5995975033      -23.9449840281       -6.4734304504  MEMB      159             0.0000000000
     19606       159  23SM      C16S          -26.0923612396      -26.0048449848       -5.9678493897  MEMB      159             0.0000000000
     19607       159  23SM      H16S          -25.5246206394      -26.3884449766       -6.8332675672  MEMB      159             0.0000000000
     19608       159  23SM      H16T          -26.9999958008      -26.6377377053       -5.8626140053  MEMB      159             0.0000000000
     19609       159  23SM      C17S          -25.2076805577      -26.1877677837       -4.7388584435  MEMB      159             0.0000000000
     19610       159  23SM      H17S          -24.2407209003      -25.6594694396       -4.8911520783  MEMB      159             0.0000000000
     19611       159  23SM      H17T          -24.9946859304      -27.2774789732       -4.6312205371  MEMB      159             0.0000000000
     19612       159  23SM      C18S          -25.8500644916      -25.6992470061       -3.4560650425  MEMB      159             0.0000000000
     19613       159  23SM      H18S          -26.6974082028      -26.3755964376       -3.2116592309  MEMB      159             0.0000000000
     19614       159  23SM      H18T          -26.2432192411      -24.6665276196       -3.5069126726  MEMB      159             0.0000000000
     19615       159  23SM      H18U          -25.1111878888      -25.7067049323       -2.6284192617  MEMB      159             0.0000000000
     19616       159  23SM      C1F           -23.2035763282      -22.1998396903      -19.2044065197  MEMB      159             0.0000000000
     19617       159  23SM      OF            -23.2327284847      -21.0322662784      -19.5392430631  MEMB      159             0.0000000000
     19618       159  23SM      C2F           -22.1663626543      -22.6428455742      -18.2645418627  MEMB      159             0.0000000000
     19619       159  23SM      H2F           -21.7149614563      -21.7220005015      -17.8204567836  MEMB      159             0.0000000000
     19620       159  23SM      H2G           -21.3727361186      -23.1752354841      -18.8274329443  MEMB      159             0.0000000000
     19621       159  23SM      C3F           -22.6247499084      -23.5434494604      -17.1227254442  MEMB      159             0.0000000000
     19622       159  23SM      H3F           -22.8963276709      -24.5724762023      -17.4558911269  MEMB      159             0.0000000000
     19623       159  23SM      H3G           -23.4885497263      -23.1253829100      -16.5564445733  MEMB      159             0.0000000000
     19624       159  23SM      C4F           -21.3949379168      -23.5799912334      -16.2305565075  MEMB      159             0.0000000000
     19625       159  23SM      H4F           -21.1611273575      -22.5407951606      -15.8977101800  MEMB      159             0.0000000000
     19626       159  23SM      H4G           -20.5168242026      -23.9673403700      -16.8006285547  MEMB      159             0.0000000000
     19627       159  23SM      C5F           -21.5790573121      -24.4188761547      -15.0142782674  MEMB      159             0.0000000000
     19628       159  23SM      H5F           -21.6384507213      -25.4977661897      -15.2977516592  MEMB      159             0.0000000000
     19629       159  23SM      H5G           -22.5396900629      -24.1549105501      -14.5132250863  MEMB      159             0.0000000000
     19630       159  23SM      C6F           -20.4218688832      -24.1958433242      -14.0599250069  MEMB      159             0.0000000000
     19631       159  23SM      H6F           -20.3523494985      -23.1303643030      -13.7422642295  MEMB      159             0.0000000000
     19632       159  23SM      H6G           -19.4566946121      -24.4986640247      -14.5182013758  MEMB      159             0.0000000000
     19633       159  23SM      C7F           -20.7933737622      -25.0726363586      -12.9081440230  MEMB      159             0.0000000000
     19634       159  23SM      H7F           -20.7994475458      -26.1381325917      -13.2425735053  MEMB      159             0.0000000000
     19635       159  23SM      H7G           -21.8479794094      -24.8006828526      -12.6499797265  MEMB      159             0.0000000000
     19636       159  23SM      C8F           -19.9966463319      -24.9181695588      -11.6466252526  MEMB      159             0.0000000000
     19637       159  23SM      H8F           -19.8111033246      -23.8615821214      -11.3721942423  MEMB      159             0.0000000000
     19638       159  23SM      H8G           -19.0234807591      -25.4376597363      -11.6651252970  MEMB      159             0.0000000000
     19639       159  23SM      C9F           -20.8047754622      -25.6524021280      -10.6214302468  MEMB      159             0.0000000000
     19640       159  23SM      H9F           -20.0601209052      -26.2488439819      -10.0549987203  MEMB      159             0.0000000000
     19641       159  23SM      H9G           -21.4553955802      -26.3853950632      -11.1501854980  MEMB      159             0.0000000000
     19642       159  23SM      C10F          -21.5520697977      -24.7091840861       -9.6930967831  MEMB      159             0.0000000000
     19643       159  23SM      H10F          -22.6057776793      -24.4786764828       -9.9580834641  MEMB      159             0.0000000000
     19644       159  23SM      H10G          -21.0674419338      -23.7098978691       -9.7251998033  MEMB      159             0.0000000000
     19645       159  23SM      C11F          -21.4507374729      -25.2904231584       -8.2952223416  MEMB      159             0.0000000000
     19646       159  23SM      H11F          -21.0651273234      -26.3314135368       -8.3119517402  MEMB      159             0.0000000000
     19647       159  23SM      H11G          -22.4567657477      -25.3402435325       -7.8183160865  MEMB      159             0.0000000000
     19648       159  23SM      C12F          -20.5661088523      -24.3697872183       -7.4972155263  MEMB      159             0.0000000000
     19649       159  23SM      H12F          -19.7592978234      -23.9582590761       -8.1453866922  MEMB      159             0.0000000000
     19650       159  23SM      H12G          -20.0610242934      -24.8185694668       -6.6270767547  MEMB      159             0.0000000000
     19651       159  23SM      C13F          -21.5071735003      -23.3104479470       -6.9977246466  MEMB      159             0.0000000000
     19652       159  23SM      H13F          -22.2215038193      -23.7541189075       -6.2645529364  MEMB      159             0.0000000000
     19653       159  23SM      H13G          -22.1148676043      -22.9185245063       -7.8493683326  MEMB      159             0.0000000000
     19654       159  23SM      C14F          -20.7439682573      -22.1813582954       -6.3873756630  MEMB      159             0.0000000000
     19655       159  23SM      H14F          -19.8711318751      -21.9173079618       -7.0293428757  MEMB      159             0.0000000000
     19656       159  23SM      H14G          -20.3451283487      -22.4754061388       -5.3940275457  MEMB      159             0.0000000000
     19657       159  23SM      C15F          -21.6777232267      -20.9941486043       -6.3307109783  MEMB      159             0.0000000000
     19658       159  23SM      H15F          -21.9990142941      -20.7360908328       -7.3601496851  MEMB      159             0.0000000000
     19659       159  23SM      H15G          -21.0457788372      -20.2107182654       -5.8914306502  MEMB      159             0.0000000000
     19660       159  23SM      C16F          -22.8964007326      -21.1488655720       -5.4325389430  MEMB      159             0.0000000000
     19661       159  23SM      H16F          -23.4652248521      -22.0767687594       -5.6577263592  MEMB      159             0.0000000000
     19662       159  23SM      H16G          -23.5915925925      -20.2914131099       -5.5842505050  MEMB      159             0.0000000000
     19663       159  23SM      C17F          -22.3951065800      -21.1554103837       -3.9998776264  MEMB      159             0.0000000000
     19664       159  23SM      H17F          -21.9233818816      -20.1746747687       -3.7649293833  MEMB      159             0.0000000000
     19665       159  23SM      H17G          -21.6135778947      -21.9387751468       -3.8881373999  MEMB      159             0.0000000000
     19666       159  23SM      C18F          -23.4746261894      -21.4786580165       -2.9923799487  MEMB      159             0.0000000000
     19667       159  23SM      H18F          -22.9060990451      -21.7940932326       -2.0911041654  MEMB      159             0.0000000000
     19668       159  23SM      H18G          -24.0966432265      -22.3360535646       -3.3294815568  MEMB      159             0.0000000000
     19669       159  23SM      C19F          -24.3535947073      -20.2741539814       -2.6658119452  MEMB      159             0.0000000000
     19670       159  23SM      H19F          -24.9628957817      -19.9860991588       -3.5502633473  MEMB      159             0.0000000000
     19671       159  23SM      H19G          -23.6898326692      -19.4110363499       -2.4358830017  MEMB      159             0.0000000000
     19672       159  23SM      C20F          -25.2617617296      -20.5738169551       -1.4724163634  MEMB      159             0.0000000000
     19673       159  23SM      H20F          -25.9512909618      -21.4033286664       -1.7471744068  MEMB      159             0.0000000000
     19674       159  23SM      H20G          -25.8758088932      -19.6764463997       -1.2340471640  MEMB      159             0.0000000000
     19675       159  23SM      C21F          -24.4748688085      -21.0000421046       -0.2269894048  MEMB      159             0.0000000000
     19676       159  23SM      H21F          -23.7119421076      -20.2370864872        0.0280017529  MEMB      159             0.0000000000
     19677       159  23SM      H21G          -23.9182548029      -21.9440533067       -0.4089707514  MEMB      159             0.0000000000
     19678       159  23SM      C22F          -25.3819687275      -21.2749442021        0.9623351088  MEMB      159             0.0000000000
     19679       159  23SM      H22F          -26.1093515303      -22.0583044253        0.6483951599  MEMB      159             0.0000000000
     19680       159  23SM      H22G          -25.9544341957      -20.3570631667        1.2243509897  MEMB      159             0.0000000000
     19681       159  23SM      C23F          -24.5740062988      -21.7737664885        2.1568502625  MEMB      159             0.0000000000
     19682       159  23SM      H23F          -25.2309104752      -22.2601631249        2.9052428559  MEMB      159             0.0000000000
     19683       159  23SM      H23G          -24.0442263161      -20.9317356372        2.6444357212  MEMB      159             0.0000000000
     19684       159  23SM      H23H          -23.8038655901      -22.4996517930        1.8145783474  MEMB      159             0.0000000000
     19685       160  DOPC      N              28.5251589636       13.5748604376      -19.2514550060  MEMB      160             0.0000000000
     19686       160  DOPC      C12            28.7809939803       14.8652322137      -20.0355747316  MEMB      160             0.0000000000
     19687       160  DOPC      H12A           27.8679387118       15.4312600942      -20.1614767449  MEMB      160             0.0000000000
     19688       160  DOPC      H12B           29.1287189693       14.5941643589      -21.0284542840  MEMB      160             0.0000000000
     19689       160  DOPC      C13            28.0731785465       13.8156487825      -17.8353282492  MEMB      160             0.0000000000
     19690       160  DOPC      H13A           27.1467407009       14.3858750389      -17.7727908779  MEMB      160             0.0000000000
     19691       160  DOPC      H13B           27.9058102164       12.8958462951      -17.2958757091  MEMB      160             0.0000000000
     19692       160  DOPC      H13C           28.8289633045       14.4127964340      -17.3127231595  MEMB      160             0.0000000000
     19693       160  DOPC      C14            29.8474011227       12.9060395558      -19.2091861548  MEMB      160             0.0000000000
     19694       160  DOPC      H14A           30.2976534638       12.8956557688      -20.1934747789  MEMB      160             0.0000000000
     19695       160  DOPC      H14B           30.5333290865       13.5186147887      -18.6097675499  MEMB      160             0.0000000000
     19696       160  DOPC      H14C           29.8047207531       11.9297714845      -18.7785482755  MEMB      160             0.0000000000
     19697       160  DOPC      C15            27.5529443275       12.7308810926      -19.9844547024  MEMB      160             0.0000000000
     19698       160  DOPC      H15A           27.9658003754       12.4217725104      -20.9452252266  MEMB      160             0.0000000000
     19699       160  DOPC      H15B           26.6459895389       13.2942214558      -20.1897807459  MEMB      160             0.0000000000
     19700       160  DOPC      H15C           27.2838920139       11.8420793132      -19.4325298546  MEMB      160             0.0000000000
     19701       160  DOPC      C11            29.8514552271       15.8319710365      -19.4853821372  MEMB      160             0.0000000000
     19702       160  DOPC      H11A           29.9845817849       16.7136988217      -20.1423564867  MEMB      160             0.0000000000
     19703       160  DOPC      H11B           29.4596201814       16.2450652610      -18.5551380477  MEMB      160             0.0000000000
     19704       160  DOPC      P              32.4222063604       15.4048867637      -19.9598302457  MEMB      160             0.0000000000
     19705       160  DOPC      O13            32.0961946680       15.7411253979      -21.3707940174  MEMB      160             0.0000000000
     19706       160  DOPC      O14            33.2122960573       14.1661347592      -19.7448870402  MEMB      160             0.0000000000
     19707       160  DOPC      O12            31.0771851544       15.1969771038      -19.2026031873  MEMB      160             0.0000000000
     19708       160  DOPC      O11            33.0295047241       16.6233588463      -19.1905729982  MEMB      160             0.0000000000
     19709       160  DOPC      C1             33.8988760527       16.4369421320      -18.0761745055  MEMB      160             0.0000000000
     19710       160  DOPC      HA             34.3818931678       17.4278783326      -17.9189722770  MEMB      160             0.0000000000
     19711       160  DOPC      HB             34.7339452038       15.7551973810      -18.3102444136  MEMB      160             0.0000000000
     19712       160  DOPC      C2             33.2519107705       16.1400002426      -16.6654224427  MEMB      160             0.0000000000
     19713       160  DOPC      HS             34.0354592100       16.0352950796      -15.8933516252  MEMB      160             0.0000000000
     19714       160  DOPC      O21            32.3127957856       15.0322941292      -16.5691835687  MEMB      160             0.0000000000
     19715       160  DOPC      C21            32.9240782412       13.9522604535      -16.0826548090  MEMB      160             0.0000000000
     19716       160  DOPC      O22            34.1025021491       13.6809484894      -16.2434476343  MEMB      160             0.0000000000
     19717       160  DOPC      C22            32.0543704664       13.1357659027      -15.1198778585  MEMB      160             0.0000000000
     19718       160  DOPC      H2R            31.8502698962       12.1555071627      -15.5909464562  MEMB      160             0.0000000000
     19719       160  DOPC      H2S            31.0976195786       13.6601996604      -14.9513310204  MEMB      160             0.0000000000
     19720       160  DOPC      C3             32.5909519483       17.4840751936      -16.3362846078  MEMB      160             0.0000000000
     19721       160  DOPC      HX             31.8687567811       17.5701627308      -17.1677279790  MEMB      160             0.0000000000
     19722       160  DOPC      HY             33.3019325132       18.3170757127      -16.5200462004  MEMB      160             0.0000000000
     19723       160  DOPC      O31            32.1099488400       17.7374986909      -15.0053837790  MEMB      160             0.0000000000
     19724       160  DOPC      C31            31.1929700045       17.0826558102      -14.3585299443  MEMB      160             0.0000000000
     19725       160  DOPC      O32            30.7063103802       16.0013138592      -14.6131949610  MEMB      160             0.0000000000
     19726       160  DOPC      C32            30.8172531015       17.8852780361      -13.1346514065  MEMB      160             0.0000000000
     19727       160  DOPC      H2X            31.4027358923       18.8241229195      -13.0688949949  MEMB      160             0.0000000000
     19728       160  DOPC      H2Y            29.7396146045       18.1477958734      -13.1460686687  MEMB      160             0.0000000000
     19729       160  DOPC      C23            32.8309760816       12.9257840032      -13.7829521989  MEMB      160             0.0000000000
     19730       160  DOPC      H3R            33.0824144810       13.9101817740      -13.3283921343  MEMB      160             0.0000000000
     19731       160  DOPC      H3S            33.7946862850       12.4087695571      -14.0096149167  MEMB      160             0.0000000000
     19732       160  DOPC      C24            32.1107622637       12.0765063626      -12.7194778106  MEMB      160             0.0000000000
     19733       160  DOPC      H4R            32.8269220602       11.7914040858      -11.9161895599  MEMB      160             0.0000000000
     19734       160  DOPC      H4S            31.7860330906       11.1288610707      -13.1957101325  MEMB      160             0.0000000000
     19735       160  DOPC      C25            30.8903101558       12.7404740789      -12.0699319504  MEMB      160             0.0000000000
     19736       160  DOPC      H5R            30.2406265209       11.9271083935      -11.6777603393  MEMB      160             0.0000000000
     19737       160  DOPC      H5S            30.3106846480       13.3062785970      -12.8309089359  MEMB      160             0.0000000000
     19738       160  DOPC      C26            31.2073851157       13.6574777848      -10.8834075216  MEMB      160             0.0000000000
     19739       160  DOPC      H6R            31.8272630099       14.5059257305      -11.2395340231  MEMB      160             0.0000000000
     19740       160  DOPC      H6S            31.8273020068       13.1187205414      -10.1351687968  MEMB      160             0.0000000000
     19741       160  DOPC      C27            29.9144080559       14.1726309949      -10.2145214744  MEMB      160             0.0000000000
     19742       160  DOPC      H7R            29.3147034257       14.7214690460      -10.9759934991  MEMB      160             0.0000000000
     19743       160  DOPC      H7S            30.1670293038       14.8939299092       -9.4070670961  MEMB      160             0.0000000000
     19744       160  DOPC      C28            29.0153636193       13.0728024758       -9.6128216659  MEMB      160             0.0000000000
     19745       160  DOPC      H8R            28.5523838138       12.4858018932      -10.4351185655  MEMB      160             0.0000000000
     19746       160  DOPC      H8S            28.1694365050       13.5745438391       -9.0894943312  MEMB      160             0.0000000000
     19747       160  DOPC      C29            29.7793401293       12.1645604746       -8.6805643118  MEMB      160             0.0000000000
     19748       160  DOPC      H9R            30.2813696312       11.3114926730       -9.1627373636  MEMB      160             0.0000000000
     19749       160  DOPC      C210           29.9559819624       12.3732607425       -7.3654665764  MEMB      160             0.0000000000
     19750       160  DOPC      H10R           30.5819627859       11.6766617248       -6.7851514900  MEMB      160             0.0000000000
     19751       160  DOPC      C211           29.4176184960       13.5581273075       -6.6054587032  MEMB      160             0.0000000000
     19752       160  DOPC      H11R           28.6098544138       13.2549785935       -5.9028140248  MEMB      160             0.0000000000
     19753       160  DOPC      H11S           28.9773634684       14.3212327083       -7.2876577800  MEMB      160             0.0000000000
     19754       160  DOPC      C212           30.5258139211       14.2671940008       -5.8184738803  MEMB      160             0.0000000000
     19755       160  DOPC      H12R           31.4817691866       14.2762500546       -6.3941404613  MEMB      160             0.0000000000
     19756       160  DOPC      H12S           30.7084177583       13.7258127727       -4.8644159715  MEMB      160             0.0000000000
     19757       160  DOPC      C213           30.1560020837       15.7243725879       -5.5364486672  MEMB      160             0.0000000000
     19758       160  DOPC      H13R           29.0705991754       15.8405784094       -5.3348985312  MEMB      160             0.0000000000
     19759       160  DOPC      H13S           30.3677262211       16.3022184318       -6.4695361743  MEMB      160             0.0000000000
     19760       160  DOPC      C214           30.9658749165       16.3211766154       -4.3873159081  MEMB      160             0.0000000000
     19761       160  DOPC      H14R           31.0125330423       17.4203147943       -4.5538248131  MEMB      160             0.0000000000
     19762       160  DOPC      H14S           32.0162538149       15.9582850503       -4.4475237399  MEMB      160             0.0000000000
     19763       160  DOPC      C215           30.4203381110       16.1213641480       -2.9560575805  MEMB      160             0.0000000000
     19764       160  DOPC      H15R           30.5167918470       17.1348402743       -2.5172008552  MEMB      160             0.0000000000
     19765       160  DOPC      H15S           31.0676420731       15.4233545195       -2.3843354538  MEMB      160             0.0000000000
     19766       160  DOPC      C216           28.9252302943       15.8462924876       -2.7256572777  MEMB      160             0.0000000000
     19767       160  DOPC      H16R           28.6172941859       14.8783048809       -3.1690669315  MEMB      160             0.0000000000
     19768       160  DOPC      H16S           28.3803693610       16.6596264439       -3.2555363387  MEMB      160             0.0000000000
     19769       160  DOPC      C217           28.5004049761       15.9215781522       -1.2382257914  MEMB      160             0.0000000000
     19770       160  DOPC      H17R           27.3897107721       15.9187858085       -1.1822187417  MEMB      160             0.0000000000
     19771       160  DOPC      H17S           28.8453325202       16.8863971402       -0.8030153195  MEMB      160             0.0000000000
     19772       160  DOPC      C218           29.0349276548       14.8304280149       -0.3217103911  MEMB      160             0.0000000000
     19773       160  DOPC      H18R           30.1451408236       14.8431491722       -0.3487448864  MEMB      160             0.0000000000
     19774       160  DOPC      H18S           28.6912368701       13.8176996799       -0.6063758551  MEMB      160             0.0000000000
     19775       160  DOPC      H18T           28.7095918304       15.0264784669        0.7272984659  MEMB      160             0.0000000000
     19776       160  DOPC      C33            31.1589965561       16.9493351145      -11.9940949759  MEMB      160             0.0000000000
     19777       160  DOPC      H3X            32.2064984983       16.5853789106      -12.1305027239  MEMB      160             0.0000000000
     19778       160  DOPC      H3Y            30.4956661650       16.0602601165      -12.0275921263  MEMB      160             0.0000000000
     19779       160  DOPC      C34            31.0635252614       17.6081186271      -10.6413298119  MEMB      160             0.0000000000
     19780       160  DOPC      H4X            30.0710566526       17.3585289579      -10.2151464237  MEMB      160             0.0000000000
     19781       160  DOPC      H4Y            31.1507251131       18.7145192171      -10.7258075373  MEMB      160             0.0000000000
     19782       160  DOPC      C35            32.1679317522       17.0770347053       -9.7536314178  MEMB      160             0.0000000000
     19783       160  DOPC      H5X            33.1145736445       16.9239167335      -10.3212197880  MEMB      160             0.0000000000
     19784       160  DOPC      H5Y            31.8662732528       16.0779761112       -9.3698184513  MEMB      160             0.0000000000
     19785       160  DOPC      C36            32.4855297268       17.9926407017       -8.5983937692  MEMB      160             0.0000000000
     19786       160  DOPC      H6X            33.0487543414       18.8899308193       -8.9440867596  MEMB      160             0.0000000000
     19787       160  DOPC      H6Y            31.5623150489       18.3389145298       -8.0891753505  MEMB      160             0.0000000000
     19788       160  DOPC      C37            33.3069934058       17.1636373744       -7.6382678004  MEMB      160             0.0000000000
     19789       160  DOPC      H7X            32.7648620518       16.2061056515       -7.4430587991  MEMB      160             0.0000000000
     19790       160  DOPC      H7Y            34.2753401608       16.9208025911       -8.1401687436  MEMB      160             0.0000000000
     19791       160  DOPC      C38            33.5290055590       17.8937125941       -6.3368349157  MEMB      160             0.0000000000
     19792       160  DOPC      H8X            32.5624907730       18.1181537083       -5.8386483816  MEMB      160             0.0000000000
     19793       160  DOPC      H8Y            34.0561145214       18.8460820033       -6.5751932295  MEMB      160             0.0000000000
     19794       160  DOPC      C39            34.4070252039       17.0003252833       -5.5368788488  MEMB      160             0.0000000000
     19795       160  DOPC      H9X            34.2621943080       15.9279251396       -5.7394613021  MEMB      160             0.0000000000
     19796       160  DOPC      C310           35.0622685645       17.3678234685       -4.4394684816  MEMB      160             0.0000000000
     19797       160  DOPC      H10X           35.7500811521       16.6553404122       -3.9650201562  MEMB      160             0.0000000000
     19798       160  DOPC      C311           34.9910987381       18.7266956178       -3.8359719289  MEMB      160             0.0000000000
     19799       160  DOPC      H11X           33.9139981835       18.9002711698       -3.6250688469  MEMB      160             0.0000000000
     19800       160  DOPC      H11Y           35.3326981278       19.4784976988       -4.5751674195  MEMB      160             0.0000000000
     19801       160  DOPC      C312           35.7287161268       18.9636833201       -2.5030464382  MEMB      160             0.0000000000
     19802       160  DOPC      H12X           35.6916257028       20.0478875247       -2.2706899691  MEMB      160             0.0000000000
     19803       160  DOPC      H12Y           36.7804802803       18.6526635748       -2.6330904360  MEMB      160             0.0000000000
     19804       160  DOPC      C313           35.1942665181       18.1898573416       -1.3053192079  MEMB      160             0.0000000000
     19805       160  DOPC      H13X           34.0991244603       18.1060225076       -1.3661880481  MEMB      160             0.0000000000
     19806       160  DOPC      H13Y           35.5974022521       17.1640803972       -1.4667151548  MEMB      160             0.0000000000
     19807       160  DOPC      C314           35.6553638774       18.5855012889        0.1174864292  MEMB      160             0.0000000000
     19808       160  DOPC      H14X           35.0422863270       17.9703153787        0.8118434622  MEMB      160             0.0000000000
     19809       160  DOPC      H14Y           36.7152813747       18.2396365113        0.1992348350  MEMB      160             0.0000000000
     19810       160  DOPC      C315           35.6630365962       20.0306359726        0.6863879647  MEMB      160             0.0000000000
     19811       160  DOPC      H15X           36.5691828551       20.5264822503        0.2986957978  MEMB      160             0.0000000000
     19812       160  DOPC      H15Y           35.8027493789       19.9508185988        1.7907775127  MEMB      160             0.0000000000
     19813       160  DOPC      C316           34.4925662389       20.9949673619        0.4436564529  MEMB      160             0.0000000000
     19814       160  DOPC      H16X           34.8159779830       21.9993199621        0.8055847968  MEMB      160             0.0000000000
     19815       160  DOPC      H16Y           34.3380533588       21.0789634217       -0.6366808662  MEMB      160             0.0000000000
     19816       160  DOPC      C317           33.2072413448       20.6513986855        1.2037967878  MEMB      160             0.0000000000
     19817       160  DOPC      H17X           33.1814060490       19.5552824053        1.3229146208  MEMB      160             0.0000000000
     19818       160  DOPC      H17Y           33.3308694011       21.0711038921        2.2177317659  MEMB      160             0.0000000000
     19819       160  DOPC      C318           31.8737753653       21.1732205314        0.6404180270  MEMB      160             0.0000000000
     19820       160  DOPC      H18X           30.9946203965       20.6548517802        1.0528521582  MEMB      160             0.0000000000
     19821       160  DOPC      H18Y           31.7105351730       22.2248703426        0.9133813393  MEMB      160             0.0000000000
     19822       160  DOPC      H18Z           31.7970231747       21.0536378909       -0.4516166817  MEMB      160             0.0000000000
     19823       161  DOPC      N               7.8100616701      -33.6116824255      -18.0694898059  MEMB      161             0.0000000000
     19824       161  DOPC      C12             7.6022696070      -32.8290098021      -19.3601587924  MEMB      161             0.0000000000
     19825       161  DOPC      H12A            6.5978721689      -32.4637141468      -19.3796582480  MEMB      161             0.0000000000
     19826       161  DOPC      H12B            7.7288877563      -33.4887783357      -20.2205141596  MEMB      161             0.0000000000
     19827       161  DOPC      C13             9.1174011290      -34.3343701377      -18.1413522041  MEMB      161             0.0000000000
     19828       161  DOPC      H13A            9.1677472052      -34.9817734394      -19.0089292781  MEMB      161             0.0000000000
     19829       161  DOPC      H13B            9.9317728009      -33.6226324191      -18.3117984172  MEMB      161             0.0000000000
     19830       161  DOPC      H13C            9.3930183330      -34.8718832479      -17.2481975993  MEMB      161             0.0000000000
     19831       161  DOPC      C14             6.7203715604      -34.6155174596      -17.8523523478  MEMB      161             0.0000000000
     19832       161  DOPC      H14A            5.7533605741      -34.1295541819      -17.7751379526  MEMB      161             0.0000000000
     19833       161  DOPC      H14B            6.6974721048      -35.3540108707      -18.6473820564  MEMB      161             0.0000000000
     19834       161  DOPC      H14C            6.8908845712      -35.1369297286      -16.9129449955  MEMB      161             0.0000000000
     19835       161  DOPC      C15             7.8400901279      -32.6792546502      -16.8900691917  MEMB      161             0.0000000000
     19836       161  DOPC      H15A            7.0144957168      -31.9852967897      -16.9096383662  MEMB      161             0.0000000000
     19837       161  DOPC      H15B            8.7710442022      -32.1063703370      -16.8981628125  MEMB      161             0.0000000000
     19838       161  DOPC      H15C            7.8068928626      -33.2243841536      -15.9535533878  MEMB      161             0.0000000000
     19839       161  DOPC      C11             8.5599372901      -31.6609599546      -19.6425360412  MEMB      161             0.0000000000
     19840       161  DOPC      H11A            8.1229224910      -30.9638981598      -20.3949004392  MEMB      161             0.0000000000
     19841       161  DOPC      H11B            8.7454891275      -31.0616970750      -18.7227737158  MEMB      161             0.0000000000
     19842       161  DOPC      P              11.1946243604      -31.9466414146      -19.7044364771  MEMB      161             0.0000000000
     19843       161  DOPC      O13            12.0862060618      -31.7018791948      -20.8561655016  MEMB      161             0.0000000000
     19844       161  DOPC      O14            11.5984814720      -33.0359656685      -18.7774901075  MEMB      161             0.0000000000
     19845       161  DOPC      O12             9.7265152608      -32.2411523596      -20.1948389201  MEMB      161             0.0000000000
     19846       161  DOPC      O11            10.9876698027      -30.5986498281      -18.9111065235  MEMB      161             0.0000000000
     19847       161  DOPC      C1             11.9612637245      -30.0119116581      -18.0493861074  MEMB      161             0.0000000000
     19848       161  DOPC      HA             12.0607585583      -28.9284335629      -18.2922738702  MEMB      161             0.0000000000
     19849       161  DOPC      HB             12.9756184487      -30.4562960835      -18.1913878948  MEMB      161             0.0000000000
     19850       161  DOPC      C2             11.5602855158      -30.1390362560      -16.5502165239  MEMB      161             0.0000000000
     19851       161  DOPC      HS             12.4512451497      -29.8577520113      -15.9365440112  MEMB      161             0.0000000000
     19852       161  DOPC      O21            11.0570290224      -31.4572508690      -16.2582281413  MEMB      161             0.0000000000
     19853       161  DOPC      C21            11.9606968839      -32.2902788490      -15.7773508620  MEMB      161             0.0000000000
     19854       161  DOPC      O22            13.1314777410      -32.0291005014      -15.5674355673  MEMB      161             0.0000000000
     19855       161  DOPC      C22            11.2879275860      -33.6045476464      -15.3919875362  MEMB      161             0.0000000000
     19856       161  DOPC      H2R            11.7789302701      -34.3836950820      -16.0103971174  MEMB      161             0.0000000000
     19857       161  DOPC      H2S            10.2143505232      -33.5633427711      -15.6486624920  MEMB      161             0.0000000000
     19858       161  DOPC      C3             10.4387752729      -29.1590911609      -16.1350188227  MEMB      161             0.0000000000
     19859       161  DOPC      HX              9.5482513285      -29.3912053377      -16.7589638905  MEMB      161             0.0000000000
     19860       161  DOPC      HY             10.7461001820      -28.1203321276      -16.3863207439  MEMB      161             0.0000000000
     19861       161  DOPC      O31            10.1090818568      -29.3501795552      -14.7334470935  MEMB      161             0.0000000000
     19862       161  DOPC      C31            10.7214171556      -28.5144597312      -13.8934137966  MEMB      161             0.0000000000
     19863       161  DOPC      O32            11.3787857229      -27.5489904576      -14.2197697763  MEMB      161             0.0000000000
     19864       161  DOPC      C32            10.4909341532      -28.9389981070      -12.4400017788  MEMB      161             0.0000000000
     19865       161  DOPC      H2X             9.4826008288      -29.3868605069      -12.3473181895  MEMB      161             0.0000000000
     19866       161  DOPC      H2Y            11.2510153782      -29.7049012716      -12.1854002681  MEMB      161             0.0000000000
     19867       161  DOPC      C23            11.4695965103      -33.9223046561      -13.8902725400  MEMB      161             0.0000000000
     19868       161  DOPC      H3R            12.5513230924      -33.8847197869      -13.6258940890  MEMB      161             0.0000000000
     19869       161  DOPC      H3S            11.1149879279      -34.9633743126      -13.7122796935  MEMB      161             0.0000000000
     19870       161  DOPC      C24            10.6772952183      -32.9854907607      -12.9598869038  MEMB      161             0.0000000000
     19871       161  DOPC      H4R             9.5918099458      -33.1104700811      -13.1690608226  MEMB      161             0.0000000000
     19872       161  DOPC      H4S            10.9346635470      -31.9254429889      -13.1771206691  MEMB      161             0.0000000000
     19873       161  DOPC      C25            10.9439399638      -33.2748243791      -11.4722955161  MEMB      161             0.0000000000
     19874       161  DOPC      H5R            11.1422893213      -34.3626632189      -11.3477066873  MEMB      161             0.0000000000
     19875       161  DOPC      H5S            10.0394746115      -33.0293833103      -10.8711091055  MEMB      161             0.0000000000
     19876       161  DOPC      C26            12.1272612622      -32.4661173015      -10.9194759855  MEMB      161             0.0000000000
     19877       161  DOPC      H6R            11.8115705949      -31.4073680468      -10.7911695718  MEMB      161             0.0000000000
     19878       161  DOPC      H6S            12.9447292730      -32.4739118895      -11.6764998390  MEMB      161             0.0000000000
     19879       161  DOPC      C27            12.6997869606      -33.0122084288       -9.5989313607  MEMB      161             0.0000000000
     19880       161  DOPC      H7R            13.6573406379      -32.4831326642       -9.3875431278  MEMB      161             0.0000000000
     19881       161  DOPC      H7S            12.9424731487      -34.0893964168       -9.7383015104  MEMB      161             0.0000000000
     19882       161  DOPC      C28            11.7674044912      -32.8698091407       -8.3825584967  MEMB      161             0.0000000000
     19883       161  DOPC      H8R            12.2320619895      -33.3845199065       -7.5130544382  MEMB      161             0.0000000000
     19884       161  DOPC      H8S            10.8187112567      -33.4096726765       -8.5947551301  MEMB      161             0.0000000000
     19885       161  DOPC      C29            11.5496115141      -31.4183013292       -8.0440412621  MEMB      161             0.0000000000
     19886       161  DOPC      H9R            12.4684547987      -30.8335086884       -7.8737024993  MEMB      161             0.0000000000
     19887       161  DOPC      C210           10.3611517136      -30.8006702544       -7.9616977224  MEMB      161             0.0000000000
     19888       161  DOPC      H10R           10.3384154633      -29.7323802689       -7.6911977045  MEMB      161             0.0000000000
     19889       161  DOPC      C211            9.0031136497      -31.4215652035       -8.1852089399  MEMB      161             0.0000000000
     19890       161  DOPC      H11R            9.0524615958      -32.3679989828       -8.7623145537  MEMB      161             0.0000000000
     19891       161  DOPC      H11S            8.3692195688      -30.7263875130       -8.7806888982  MEMB      161             0.0000000000
     19892       161  DOPC      C212            8.3054473721      -31.6848725456       -6.8394860571  MEMB      161             0.0000000000
     19893       161  DOPC      H12R            8.9024259717      -32.3843873466       -6.2134713000  MEMB      161             0.0000000000
     19894       161  DOPC      H12S            7.3166193722      -32.1615643927       -7.0255911737  MEMB      161             0.0000000000
     19895       161  DOPC      C213            8.0885764471      -30.3561158717       -6.1171331853  MEMB      161             0.0000000000
     19896       161  DOPC      H13R            7.5805809260      -29.6911603064       -6.8518152103  MEMB      161             0.0000000000
     19897       161  DOPC      H13S            9.0652463874      -29.8956220869       -5.8441050524  MEMB      161             0.0000000000
     19898       161  DOPC      C214            7.2352534915      -30.3993158994       -4.8561375525  MEMB      161             0.0000000000
     19899       161  DOPC      H14R            6.3144362043      -30.9801845873       -5.0547642748  MEMB      161             0.0000000000
     19900       161  DOPC      H14S            6.9352703641      -29.3570346222       -4.5972577551  MEMB      161             0.0000000000
     19901       161  DOPC      C215            7.9832236462      -30.9753058734       -3.6592326962  MEMB      161             0.0000000000
     19902       161  DOPC      H15R            8.8605607982      -30.3385219489       -3.4301761540  MEMB      161             0.0000000000
     19903       161  DOPC      H15S            8.3694408460      -31.9820685728       -3.9270964872  MEMB      161             0.0000000000
     19904       161  DOPC      C216            7.0845675195      -31.0714152005       -2.4293702938  MEMB      161             0.0000000000
     19905       161  DOPC      H16R            6.2287891792      -31.7434577698       -2.6712030212  MEMB      161             0.0000000000
     19906       161  DOPC      H16S            6.6646372980      -30.0745863123       -2.1636097056  MEMB      161             0.0000000000
     19907       161  DOPC      C217            7.8232227771      -31.6139721817       -1.2136983308  MEMB      161             0.0000000000
     19908       161  DOPC      H17R            8.4624406671      -30.8086419007       -0.7938823681  MEMB      161             0.0000000000
     19909       161  DOPC      H17S            8.5182004985      -32.4266562860       -1.5079979615  MEMB      161             0.0000000000
     19910       161  DOPC      C218            6.8499378409      -32.1388160015       -0.1689337710  MEMB      161             0.0000000000
     19911       161  DOPC      H18R            6.2496121373      -32.9816498337       -0.5758859136  MEMB      161             0.0000000000
     19912       161  DOPC      H18S            6.1458723749      -31.3381946470        0.1525878426  MEMB      161             0.0000000000
     19913       161  DOPC      H18T            7.4098244327      -32.4944879849        0.7235659886  MEMB      161             0.0000000000
     19914       161  DOPC      C33            10.6268180440      -27.7249126842      -11.4949992129  MEMB      161             0.0000000000
     19915       161  DOPC      H3X            10.0359026522      -26.8729353335      -11.9074830691  MEMB      161             0.0000000000
     19916       161  DOPC      H3Y            11.6875446311      -27.3976154669      -11.4431154102  MEMB      161             0.0000000000
     19917       161  DOPC      C34            10.1396391420      -27.9523785105      -10.0623192026  MEMB      161             0.0000000000
     19918       161  DOPC      H4X            10.9333420474      -28.4710842574       -9.4784699640  MEMB      161             0.0000000000
     19919       161  DOPC      H4Y             9.2310558988      -28.5935893529      -10.0519274151  MEMB      161             0.0000000000
     19920       161  DOPC      C35             9.8229442603      -26.6019546662       -9.4112156809  MEMB      161             0.0000000000
     19921       161  DOPC      H5X             9.0224298936      -26.0843088324       -9.9873609797  MEMB      161             0.0000000000
     19922       161  DOPC      H5Y            10.7338796530      -25.9666558936       -9.4697126808  MEMB      161             0.0000000000
     19923       161  DOPC      C36             9.4001529302      -26.7021700419       -7.9482560303  MEMB      161             0.0000000000
     19924       161  DOPC      H6X            10.0072945137      -27.4702681368       -7.4216123210  MEMB      161             0.0000000000
     19925       161  DOPC      H6Y             9.6247593933      -25.7182647611       -7.4761011883  MEMB      161             0.0000000000
     19926       161  DOPC      C37             7.9011696370      -26.9885925903       -7.7836021104  MEMB      161             0.0000000000
     19927       161  DOPC      H7X             7.3170386636      -26.1906266832       -8.2938721009  MEMB      161             0.0000000000
     19928       161  DOPC      H7Y             7.6620462432      -27.9461296819       -8.3005469951  MEMB      161             0.0000000000
     19929       161  DOPC      C38             7.4747550126      -27.0799617657       -6.3074228765  MEMB      161             0.0000000000
     19930       161  DOPC      H8X             8.0123302363      -27.9234248964       -5.8466010217  MEMB      161             0.0000000000
     19931       161  DOPC      H8Y             6.3878743922      -27.3229582079       -6.2577660580  MEMB      161             0.0000000000
     19932       161  DOPC      C39             7.7988641223      -25.8478123096       -5.5145424798  MEMB      161             0.0000000000
     19933       161  DOPC      H9X             7.0890841129      -25.0181913771       -5.6616536711  MEMB      161             0.0000000000
     19934       161  DOPC      C310            8.8846835512      -25.6584573691       -4.7294987231  MEMB      161             0.0000000000
     19935       161  DOPC      H10X            8.9863006123      -24.6642704898       -4.2719332067  MEMB      161             0.0000000000
     19936       161  DOPC      C311           10.0457676351      -26.5993978789       -4.4341512554  MEMB      161             0.0000000000
     19937       161  DOPC      H11X           10.9288512436      -26.1933926010       -4.9650642005  MEMB      161             0.0000000000
     19938       161  DOPC      H11Y            9.8798334261      -27.5911489015       -4.9011483475  MEMB      161             0.0000000000
     19939       161  DOPC      C312           10.5633247946      -26.8680831478       -2.9826697306  MEMB      161             0.0000000000
     19940       161  DOPC      H12X           10.1511073770      -26.1543270357       -2.2536496978  MEMB      161             0.0000000000
     19941       161  DOPC      H12Y           11.6630708545      -26.6940296032       -2.9638456973  MEMB      161             0.0000000000
     19942       161  DOPC      C313           10.3007327038      -28.3151312115       -2.5226763287  MEMB      161             0.0000000000
     19943       161  DOPC      H13X            9.2317044963      -28.4076748656       -2.2222369269  MEMB      161             0.0000000000
     19944       161  DOPC      H13Y           10.4713022753      -28.9781401253       -3.3995230782  MEMB      161             0.0000000000
     19945       161  DOPC      C314           11.1932825505      -28.8836575591       -1.3985463802  MEMB      161             0.0000000000
     19946       161  DOPC      H14X           10.8525421676      -29.9339469253       -1.2391560359  MEMB      161             0.0000000000
     19947       161  DOPC      H14Y           12.2579476158      -28.9164609177       -1.7123436544  MEMB      161             0.0000000000
     19948       161  DOPC      C315           11.0675745614      -28.1262884842       -0.0776755452  MEMB      161             0.0000000000
     19949       161  DOPC      H15X            9.9821545019      -27.9693832856        0.0892805287  MEMB      161             0.0000000000
     19950       161  DOPC      H15Y           11.5309379493      -27.1220062734       -0.1782919302  MEMB      161             0.0000000000
     19951       161  DOPC      C316           11.6743196474      -28.8088802074        1.1611562055  MEMB      161             0.0000000000
     19952       161  DOPC      H16X           12.7658119949      -28.6032254653        1.2054804453  MEMB      161             0.0000000000
     19953       161  DOPC      H16Y           11.2090496794      -28.3376885966        2.0598864374  MEMB      161             0.0000000000
     19954       161  DOPC      C317           11.4904444103      -30.3285573575        1.2780968403  MEMB      161             0.0000000000
     19955       161  DOPC      H17X           10.4274866806      -30.5998472627        1.0996513467  MEMB      161             0.0000000000
     19956       161  DOPC      H17Y           12.0945873874      -30.8353063931        0.4914821159  MEMB      161             0.0000000000
     19957       161  DOPC      C318           11.9485962756      -30.8117396206        2.6579253647  MEMB      161             0.0000000000
     19958       161  DOPC      H18X           13.0532636785      -30.9356321614        2.6509089791  MEMB      161             0.0000000000
     19959       161  DOPC      H18Y           11.6884353097      -30.0540779168        3.4301106694  MEMB      161             0.0000000000
     19960       161  DOPC      H18Z           11.4933305252      -31.7778603521        2.9546972084  MEMB      161             0.0000000000
     19961       162  DOPC      N              24.7625639306       22.1545342164      -18.4831114464  MEMB      162             0.0000000000
     19962       162  DOPC      C12            25.4846083141       20.8890118312      -17.9870447291  MEMB      162             0.0000000000
     19963       162  DOPC      H12A           24.9080680622       20.4090185132      -17.2072506174  MEMB      162             0.0000000000
     19964       162  DOPC      H12B           26.4348209638       21.1535388690      -17.5390647678  MEMB      162             0.0000000000
     19965       162  DOPC      C13            23.5346512332       21.7307217707      -19.2306865205  MEMB      162             0.0000000000
     19966       162  DOPC      H13A           23.8350383629       21.0660845401      -20.0461197182  MEMB      162             0.0000000000
     19967       162  DOPC      H13B           22.8247379897       21.2167982599      -18.5941343250  MEMB      162             0.0000000000
     19968       162  DOPC      H13C           23.0430475833       22.5856287307      -19.6757332809  MEMB      162             0.0000000000
     19969       162  DOPC      C14            25.7163713417       22.8087450322      -19.4414071391  MEMB      162             0.0000000000
     19970       162  DOPC      H14A           26.6704203862       23.0616146819      -18.9817967825  MEMB      162             0.0000000000
     19971       162  DOPC      H14B           25.9974089012       22.0744511682      -20.2104804986  MEMB      162             0.0000000000
     19972       162  DOPC      H14C           25.3249745815       23.6821255052      -19.9323067487  MEMB      162             0.0000000000
     19973       162  DOPC      C15            24.3769011819       23.1309952548      -17.3995012714  MEMB      162             0.0000000000
     19974       162  DOPC      H15A           25.2342945756       23.5210195587      -16.8641779213  MEMB      162             0.0000000000
     19975       162  DOPC      H15B           23.6980427188       22.7131000796      -16.6641739499  MEMB      162             0.0000000000
     19976       162  DOPC      H15C           23.8707172063       23.9955596383      -17.8265949274  MEMB      162             0.0000000000
     19977       162  DOPC      C11            25.8212265253       19.7991640905      -19.0678796974  MEMB      162             0.0000000000
     19978       162  DOPC      H11A           26.1773439263       18.8775300283      -18.5516449284  MEMB      162             0.0000000000
     19979       162  DOPC      H11B           24.8755893846       19.5084973588      -19.5720869530  MEMB      162             0.0000000000
     19980       162  DOPC      P              28.2748991092       19.7465843659      -20.1010757757  MEMB      162             0.0000000000
     19981       162  DOPC      O13            29.1465979992       20.8627401308      -20.5223529571  MEMB      162             0.0000000000
     19982       162  DOPC      O14            28.3815484300       18.4325313486      -20.7906905909  MEMB      162             0.0000000000
     19983       162  DOPC      O12            26.7538351928       20.2315070174      -20.0707161941  MEMB      162             0.0000000000
     19984       162  DOPC      O11            28.4637502895       19.5007281105      -18.5759171253  MEMB      162             0.0000000000
     19985       162  DOPC      C1             29.7523701274       19.0652194493      -18.1586786493  MEMB      162             0.0000000000
     19986       162  DOPC      HA             30.5662666981       19.7959065118      -18.4024025311  MEMB      162             0.0000000000
     19987       162  DOPC      HB             30.0387675595       18.1327099336      -18.6671603793  MEMB      162             0.0000000000
     19988       162  DOPC      C2             29.7343808419       18.7791054111      -16.6523839535  MEMB      162             0.0000000000
     19989       162  DOPC      HS             30.2577438885       17.8505361895      -16.4455441613  MEMB      162             0.0000000000
     19990       162  DOPC      O21            28.3983504632       18.6178191608      -16.1696030286  MEMB      162             0.0000000000
     19991       162  DOPC      C21            27.9665734762       17.3553402429      -16.3523390084  MEMB      162             0.0000000000
     19992       162  DOPC      O22            28.6213942677       16.3674343154      -16.5812174833  MEMB      162             0.0000000000
     19993       162  DOPC      C22            26.5486075181       17.2694572388      -15.9492484519  MEMB      162             0.0000000000
     19994       162  DOPC      H2R            26.1730235708       16.2411406396      -16.1471974352  MEMB      162             0.0000000000
     19995       162  DOPC      H2S            25.9332956980       18.0025230854      -16.5069645162  MEMB      162             0.0000000000
     19996       162  DOPC      C3             30.4953239286       19.9478189223      -15.9610404864  MEMB      162             0.0000000000
     19997       162  DOPC      HX             31.5211512587       19.9728914289      -16.3890868869  MEMB      162             0.0000000000
     19998       162  DOPC      HY             30.6560016695       19.7759855361      -14.8789282993  MEMB      162             0.0000000000
     19999       162  DOPC      O31            29.8881875983       21.2059193287      -16.2548097571  MEMB      162             0.0000000000
     20000       162  DOPC      C31            29.0130131328       21.5490802827      -15.3514123027  MEMB      162             0.0000000000
     20001       162  DOPC      O32            28.7902360932       20.9655799383      -14.3023985745  MEMB      162             0.0000000000
     20002       162  DOPC      C32            28.3307625981       22.8282816296      -15.7575098043  MEMB      162             0.0000000000
     20003       162  DOPC      H2X            29.0526256565       23.4095098436      -16.3763661341  MEMB      162             0.0000000000
     20004       162  DOPC      H2Y            27.4448524366       22.6028038677      -16.3775026296  MEMB      162             0.0000000000
     20005       162  DOPC      C23            26.6529621358       17.5392832496      -14.4678418951  MEMB      162             0.0000000000
     20006       162  DOPC      H3R            27.6679661034       17.4345334306      -14.0067511053  MEMB      162             0.0000000000
     20007       162  DOPC      H3S            26.0783134871       16.7732891163      -13.9328715597  MEMB      162             0.0000000000
     20008       162  DOPC      C24            26.1799367067       18.9382021615      -14.1737295151  MEMB      162             0.0000000000
     20009       162  DOPC      H4R            25.2324255879       19.1814762451      -14.6985998265  MEMB      162             0.0000000000
     20010       162  DOPC      H4S            26.9232389683       19.6875158894      -14.5016852531  MEMB      162             0.0000000000
     20011       162  DOPC      C25            25.9890381968       18.9601207694      -12.6949776847  MEMB      162             0.0000000000
     20012       162  DOPC      H5R            26.7806277489       18.3840125349      -12.1613902727  MEMB      162             0.0000000000
     20013       162  DOPC      H5S            25.0117020659       18.4893151974      -12.5142850890  MEMB      162             0.0000000000
     20014       162  DOPC      C26            25.8745943292       20.3335045875      -12.1458533899  MEMB      162             0.0000000000
     20015       162  DOPC      H6R            25.3248336300       20.9754454027      -12.8704995691  MEMB      162             0.0000000000
     20016       162  DOPC      H6S            26.8975110775       20.7438257419      -11.9878370016  MEMB      162             0.0000000000
     20017       162  DOPC      C27            25.0600704477       20.2468307214      -10.8730655945  MEMB      162             0.0000000000
     20018       162  DOPC      H7R            24.0739205925       19.7804740831      -11.1008227244  MEMB      162             0.0000000000
     20019       162  DOPC      H7S            24.8898248652       21.3078555412      -10.6019099543  MEMB      162             0.0000000000
     20020       162  DOPC      C28            25.7403882882       19.4861090379       -9.7354701473  MEMB      162             0.0000000000
     20021       162  DOPC      H8R            26.0467518375       18.4705506563      -10.0726939070  MEMB      162             0.0000000000
     20022       162  DOPC      H8S            25.0432807561       19.3510445503       -8.8805757652  MEMB      162             0.0000000000
     20023       162  DOPC      C29            26.8970296056       20.3994117407       -9.4359036341  MEMB      162             0.0000000000
     20024       162  DOPC      H9R            26.6806225337       21.4665431974       -9.5858073026  MEMB      162             0.0000000000
     20025       162  DOPC      C210           28.1004635322       20.0547764256       -8.9965557152  MEMB      162             0.0000000000
     20026       162  DOPC      H10R           28.8756259425       20.8279535601       -8.8979806418  MEMB      162             0.0000000000
     20027       162  DOPC      C211           28.4991353861       18.6459890359       -8.7022925263  MEMB      162             0.0000000000
     20028       162  DOPC      H11R           29.6033540010       18.5790300221       -8.6435815298  MEMB      162             0.0000000000
     20029       162  DOPC      H11S           28.1412789298       17.9355466327       -9.4767473018  MEMB      162             0.0000000000
     20030       162  DOPC      C212           27.9422373920       18.3071934801       -7.3180380770  MEMB      162             0.0000000000
     20031       162  DOPC      H12R           27.9765356153       17.2110460611       -7.1367209303  MEMB      162             0.0000000000
     20032       162  DOPC      H12S           26.8801733587       18.6308573873       -7.2151227291  MEMB      162             0.0000000000
     20033       162  DOPC      C213           28.8053189860       19.0094687959       -6.2799530293  MEMB      162             0.0000000000
     20034       162  DOPC      H13R           29.1146104650       20.0152714716       -6.6485845537  MEMB      162             0.0000000000
     20035       162  DOPC      H13S           29.7448821627       18.4344193129       -6.1366165085  MEMB      162             0.0000000000
     20036       162  DOPC      C214           28.1360734069       19.2481958472       -4.9404533811  MEMB      162             0.0000000000
     20037       162  DOPC      H14R           27.7627753440       18.3011797600       -4.5017854730  MEMB      162             0.0000000000
     20038       162  DOPC      H14S           27.2717929954       19.9410598673       -5.0668254420  MEMB      162             0.0000000000
     20039       162  DOPC      C215           29.2033201951       19.9113153040       -4.0825647879  MEMB      162             0.0000000000
     20040       162  DOPC      H15R           29.5774554694       20.7592296317       -4.7016383683  MEMB      162             0.0000000000
     20041       162  DOPC      H15S           30.0571851174       19.2194965397       -3.9067833941  MEMB      162             0.0000000000
     20042       162  DOPC      C216           28.7238622787       20.4734849256       -2.7589504177  MEMB      162             0.0000000000
     20043       162  DOPC      H16R           27.7841541307       21.0478707608       -2.9293724708  MEMB      162             0.0000000000
     20044       162  DOPC      H16S           29.4917939994       21.1580592162       -2.3398798719  MEMB      162             0.0000000000
     20045       162  DOPC      C217           28.5081280093       19.4034126152       -1.7255950444  MEMB      162             0.0000000000
     20046       162  DOPC      H17R           28.8432965252       19.7655221023       -0.7274591391  MEMB      162             0.0000000000
     20047       162  DOPC      H17S           29.1212106756       18.5222606736       -1.9840471158  MEMB      162             0.0000000000
     20048       162  DOPC      C218           27.0382009920       19.0893190988       -1.6793955795  MEMB      162             0.0000000000
     20049       162  DOPC      H18R           26.6336807192       18.8429430029       -2.6836504280  MEMB      162             0.0000000000
     20050       162  DOPC      H18S           26.5303658044       20.0169794487       -1.3363706674  MEMB      162             0.0000000000
     20051       162  DOPC      H18T           26.8189020601       18.2603992474       -0.9780921795  MEMB      162             0.0000000000
     20052       162  DOPC      C33            27.9830699886       23.6140541321      -14.4785626159  MEMB      162             0.0000000000
     20053       162  DOPC      H3X            27.9980281062       24.6660876742      -14.7797321386  MEMB      162             0.0000000000
     20054       162  DOPC      H3Y            28.7949166123       23.5395845431      -13.7191557295  MEMB      162             0.0000000000
     20055       162  DOPC      C34            26.6475355965       23.2104898695      -13.8186360864  MEMB      162             0.0000000000
     20056       162  DOPC      H4X            26.8776037951       22.2873364319      -13.2647206312  MEMB      162             0.0000000000
     20057       162  DOPC      H4Y            25.8683548908       22.9892606455      -14.5764330893  MEMB      162             0.0000000000
     20058       162  DOPC      C35            26.1156842603       24.2357289389      -12.8097519899  MEMB      162             0.0000000000
     20059       162  DOPC      H5X            25.1824074980       24.7297300380      -13.1613251041  MEMB      162             0.0000000000
     20060       162  DOPC      H5Y            26.9078756257       25.0025539191      -12.7989785937  MEMB      162             0.0000000000
     20061       162  DOPC      C36            25.9385074020       23.7774570128      -11.3634609072  MEMB      162             0.0000000000
     20062       162  DOPC      H6X            24.9962735726       23.2028753910      -11.3028078695  MEMB      162             0.0000000000
     20063       162  DOPC      H6Y            26.7558729443       23.0738258933      -11.1212001444  MEMB      162             0.0000000000
     20064       162  DOPC      C37            25.8142096386       24.9753364305      -10.3896967457  MEMB      162             0.0000000000
     20065       162  DOPC      H7X            25.8804283522       25.9158488184      -10.9674284471  MEMB      162             0.0000000000
     20066       162  DOPC      H7Y            24.7785701074       24.9931060369       -9.9960039994  MEMB      162             0.0000000000
     20067       162  DOPC      C38            26.7883511805       25.0717653496       -9.1911809452  MEMB      162             0.0000000000
     20068       162  DOPC      H8X            26.1243015657       25.2506034243       -8.3139175945  MEMB      162             0.0000000000
     20069       162  DOPC      H8Y            27.3916328142       25.9920550387       -9.2085873977  MEMB      162             0.0000000000
     20070       162  DOPC      C39            27.7419443489       23.9257128798       -8.9962914275  MEMB      162             0.0000000000
     20071       162  DOPC      H9X            28.3005855807       23.5605298306       -9.8725956262  MEMB      162             0.0000000000
     20072       162  DOPC      C310           27.9822489858       23.4223088805       -7.7898465767  MEMB      162             0.0000000000
     20073       162  DOPC      H10X           28.6009202509       22.5238422905       -7.6503515566  MEMB      162             0.0000000000
     20074       162  DOPC      C311           27.3079533014       23.9943699746       -6.5878963178  MEMB      162             0.0000000000
     20075       162  DOPC      H11X           26.2097230199       23.8609315352       -6.6429897380  MEMB      162             0.0000000000
     20076       162  DOPC      H11Y           27.4883820942       25.0903630017       -6.5291047793  MEMB      162             0.0000000000
     20077       162  DOPC      C312           27.8531781123       23.3569019625       -5.3367491982  MEMB      162             0.0000000000
     20078       162  DOPC      H12X           27.7593953104       22.2478849799       -5.3688821563  MEMB      162             0.0000000000
     20079       162  DOPC      H12Y           27.2078295893       23.6874333057       -4.4904410638  MEMB      162             0.0000000000
     20080       162  DOPC      C313           29.3046886339       23.7790012969       -5.0571372755  MEMB      162             0.0000000000
     20081       162  DOPC      H13X           29.9831614280       23.2791925143       -5.7865468807  MEMB      162             0.0000000000
     20082       162  DOPC      H13Y           29.4451799243       24.8727176621       -5.1592170851  MEMB      162             0.0000000000
     20083       162  DOPC      C314           29.6109044232       23.3345614226       -3.6384935636  MEMB      162             0.0000000000
     20084       162  DOPC      H14X           28.6536056698       22.9599705533       -3.2497158486  MEMB      162             0.0000000000
     20085       162  DOPC      H14Y           30.2343187515       22.4538574922       -3.6945863270  MEMB      162             0.0000000000
     20086       162  DOPC      C315           30.1838704187       24.2871899443       -2.5962873099  MEMB      162             0.0000000000
     20087       162  DOPC      H15X           29.8706283408       25.3238401788       -2.8088427148  MEMB      162             0.0000000000
     20088       162  DOPC      H15Y           31.2967850476       24.2740721180       -2.6864594730  MEMB      162             0.0000000000
     20089       162  DOPC      C316           29.8314555051       23.8312723048       -1.1545685635  MEMB      162             0.0000000000
     20090       162  DOPC      H16X           30.4218845136       22.9053219894       -0.9757942485  MEMB      162             0.0000000000
     20091       162  DOPC      H16Y           30.1795236074       24.6006160138       -0.4298173167  MEMB      162             0.0000000000
     20092       162  DOPC      C317           28.3826641426       23.4690762377       -0.7586307683  MEMB      162             0.0000000000
     20093       162  DOPC      H17X           27.8026790712       24.3995298838       -0.6169303455  MEMB      162             0.0000000000
     20094       162  DOPC      H17Y           27.8360106027       22.8901041993       -1.5275877156  MEMB      162             0.0000000000
     20095       162  DOPC      C318           28.3585473143       22.6237274740        0.5240281520  MEMB      162             0.0000000000
     20096       162  DOPC      H18X           28.8261720649       21.6325786369        0.3381225462  MEMB      162             0.0000000000
     20097       162  DOPC      H18Y           28.9333723822       23.1229213085        1.3317755766  MEMB      162             0.0000000000
     20098       162  DOPC      H18Z           27.3188599983       22.4556825557        0.8741750723  MEMB      162             0.0000000000
     20099       163  DOPE      N             -20.3915436042       24.5074845705      -21.7811285327  MEMB      163             0.0000000000
     20100       163  DOPE      HN1           -20.2113003800       23.6828854819      -21.1770816113  MEMB      163             0.0000000000
     20101       163  DOPE      HN2           -21.0185439480       24.2341426738      -22.5653606939  MEMB      163             0.0000000000
     20102       163  DOPE      HN3           -19.4402878870       24.7780547158      -22.1499522996  MEMB      163             0.0000000000
     20103       163  DOPE      C12           -20.8947369899       25.7349288929      -21.0607021992  MEMB      163             0.0000000000
     20104       163  DOPE      H12A          -21.9157660711       25.5392185345      -20.6818264187  MEMB      163             0.0000000000
     20105       163  DOPE      H12B          -20.9518664123       26.5651127811      -21.7969135494  MEMB      163             0.0000000000
     20106       163  DOPE      C11           -19.9825294752       26.1418084761      -19.9010284274  MEMB      163             0.0000000000
     20107       163  DOPE      H11A          -18.9439085679       26.3181293153      -20.2654620609  MEMB      163             0.0000000000
     20108       163  DOPE      H11B          -19.9806318738       25.3251433345      -19.1489177176  MEMB      163             0.0000000000
     20109       163  DOPE      P             -20.1199557014       28.0286135898      -18.0069100359  MEMB      163             0.0000000000
     20110       163  DOPE      O13           -21.3712153579       28.2786521933      -17.2561911662  MEMB      163             0.0000000000
     20111       163  DOPE      O14           -19.2670465286       29.1952403050      -18.3276993634  MEMB      163             0.0000000000
     20112       163  DOPE      O11           -19.2827117912       26.9247038012      -17.2486764700  MEMB      163             0.0000000000
     20113       163  DOPE      O12           -20.5162596735       27.3252642913      -19.3564037259  MEMB      163             0.0000000000
     20114       163  DOPE      C1            -17.8505124693       26.9984278740      -17.2280691547  MEMB      163             0.0000000000
     20115       163  DOPE      HA            -17.5106107956       27.9993135132      -16.8766820215  MEMB      163             0.0000000000
     20116       163  DOPE      HB            -17.4428317993       26.8396237612      -18.2518441917  MEMB      163             0.0000000000
     20117       163  DOPE      C2            -17.1974399110       25.9234681908      -16.2904064960  MEMB      163             0.0000000000
     20118       163  DOPE      HS            -16.2945874009       25.5158470966      -16.8009350646  MEMB      163             0.0000000000
     20119       163  DOPE      O21           -18.0913666494       24.8403906597      -15.9797402740  MEMB      163             0.0000000000
     20120       163  DOPE      C21           -18.5747403969       24.2323591035      -17.0372688222  MEMB      163             0.0000000000
     20121       163  DOPE      O22           -18.0933952661       24.2326078115      -18.1618451656  MEMB      163             0.0000000000
     20122       163  DOPE      C22           -19.9101158939       23.5379718943      -16.6886967979  MEMB      163             0.0000000000
     20123       163  DOPE      H2R           -19.6597718907       22.6433758428      -16.0777514981  MEMB      163             0.0000000000
     20124       163  DOPE      H2S           -20.3639817711       23.1917789176      -17.6352150600  MEMB      163             0.0000000000
     20125       163  DOPE      C3            -16.7299515479       26.5733387115      -14.9500298736  MEMB      163             0.0000000000
     20126       163  DOPE      HX            -15.7858533182       27.1205135204      -15.1698971557  MEMB      163             0.0000000000
     20127       163  DOPE      HY            -16.4757321607       25.7743849794      -14.2130671054  MEMB      163             0.0000000000
     20128       163  DOPE      O31           -17.6972853767       27.5217215663      -14.4352634700  MEMB      163             0.0000000000
     20129       163  DOPE      C31           -18.7549310644       26.9833073552      -13.8236981517  MEMB      163             0.0000000000
     20130       163  DOPE      O32           -18.8033129568       25.8539322447      -13.3741374402  MEMB      163             0.0000000000
     20131       163  DOPE      C32           -19.8559756450       28.0331930263      -13.6422184217  MEMB      163             0.0000000000
     20132       163  DOPE      H2X           -19.6998379317       28.4465994798      -12.6291970399  MEMB      163             0.0000000000
     20133       163  DOPE      H2Y           -19.7325841854       28.8476607885      -14.3820470834  MEMB      163             0.0000000000
     20134       163  DOPE      C23           -20.9141997800       24.4287058967      -15.9029412591  MEMB      163             0.0000000000
     20135       163  DOPE      H3R           -21.1898456824       25.3557988497      -16.4502854178  MEMB      163             0.0000000000
     20136       163  DOPE      H3S           -20.3979666452       24.7590371995      -14.9707907596  MEMB      163             0.0000000000
     20137       163  DOPE      C24           -22.1550853503       23.6410071489      -15.4817974730  MEMB      163             0.0000000000
     20138       163  DOPE      H4R           -21.7809544323       22.6918121136      -15.0303769209  MEMB      163             0.0000000000
     20139       163  DOPE      H4S           -22.8461721674       23.4259480025      -16.3042888728  MEMB      163             0.0000000000
     20140       163  DOPE      C25           -23.0458838581       24.2884806299      -14.4512326066  MEMB      163             0.0000000000
     20141       163  DOPE      H5R           -24.0422641854       23.7812673222      -14.4475340885  MEMB      163             0.0000000000
     20142       163  DOPE      H5S           -23.2230753954       25.3653126376      -14.6714853476  MEMB      163             0.0000000000
     20143       163  DOPE      C26           -22.4384462261       24.0808300136      -13.0797664500  MEMB      163             0.0000000000
     20144       163  DOPE      H6R           -21.4029982000       24.4745633326      -13.0573713130  MEMB      163             0.0000000000
     20145       163  DOPE      H6S           -22.3520974658       22.9974309443      -12.8362791633  MEMB      163             0.0000000000
     20146       163  DOPE      C27           -23.3580184500       24.7461051894      -12.0781558544  MEMB      163             0.0000000000
     20147       163  DOPE      H7R           -24.3049471958       24.2071895803      -12.1901114495  MEMB      163             0.0000000000
     20148       163  DOPE      H7S           -23.5477006481       25.8065956140      -12.3310424668  MEMB      163             0.0000000000
     20149       163  DOPE      C28           -22.9189309159       24.5858625818      -10.6480933035  MEMB      163             0.0000000000
     20150       163  DOPE      H8R           -22.9223696759       23.4997786659      -10.4059406916  MEMB      163             0.0000000000
     20151       163  DOPE      H8S           -23.6458620328       25.0987413215       -9.9760983171  MEMB      163             0.0000000000
     20152       163  DOPE      C29           -21.5291613393       25.1095542452      -10.5057689591  MEMB      163             0.0000000000
     20153       163  DOPE      H9R           -21.1189030740       25.7912432555      -11.2728767539  MEMB      163             0.0000000000
     20154       163  DOPE      C210          -20.8829647668       24.9333352652       -9.3718745662  MEMB      163             0.0000000000
     20155       163  DOPE      H10R          -19.8780762119       25.3685940830       -9.2570666250  MEMB      163             0.0000000000
     20156       163  DOPE      C211          -21.4774320921       24.2350333907       -8.1759366720  MEMB      163             0.0000000000
     20157       163  DOPE      H11R          -21.2220663212       23.1564011924       -8.0887728100  MEMB      163             0.0000000000
     20158       163  DOPE      H11S          -22.5873390534       24.3303786822       -8.1142000524  MEMB      163             0.0000000000
     20159       163  DOPE      C212          -20.9039090970       25.0693560129       -7.0441307644  MEMB      163             0.0000000000
     20160       163  DOPE      H12R          -21.5340689801       25.9753326011       -6.9594061157  MEMB      163             0.0000000000
     20161       163  DOPE      H12S          -19.8360629353       25.3541926818       -7.2170944235  MEMB      163             0.0000000000
     20162       163  DOPE      C213          -20.8511971657       24.3730780015       -5.7150850198  MEMB      163             0.0000000000
     20163       163  DOPE      H13R          -20.3966564501       23.3982045747       -5.9778907995  MEMB      163             0.0000000000
     20164       163  DOPE      H13S          -21.8812912895       24.1946342677       -5.3500375593  MEMB      163             0.0000000000
     20165       163  DOPE      C214          -19.9957110542       25.1663404643       -4.6989050914  MEMB      163             0.0000000000
     20166       163  DOPE      H14R          -19.8875791630       26.2098154753       -5.0733911704  MEMB      163             0.0000000000
     20167       163  DOPE      H14S          -18.9669954900       24.7923437304       -4.6012768783  MEMB      163             0.0000000000
     20168       163  DOPE      C215          -20.5691101929       25.1762768540       -3.2795792453  MEMB      163             0.0000000000
     20169       163  DOPE      H15R          -21.4429322837       24.4903346746       -3.2107182771  MEMB      163             0.0000000000
     20170       163  DOPE      H15S          -20.9117902155       26.2035436532       -3.1290264095  MEMB      163             0.0000000000
     20171       163  DOPE      C216          -19.6232058365       24.9388412598       -2.0921853346  MEMB      163             0.0000000000
     20172       163  DOPE      H16R          -19.4459514127       23.8497318238       -1.9563738803  MEMB      163             0.0000000000
     20173       163  DOPE      H16S          -20.1669264750       25.2907428518       -1.1851060449  MEMB      163             0.0000000000
     20174       163  DOPE      C217          -18.2600122744       25.6509558532       -2.1530149512  MEMB      163             0.0000000000
     20175       163  DOPE      H17R          -17.6250004962       25.0790550665       -2.8615510031  MEMB      163             0.0000000000
     20176       163  DOPE      H17S          -17.7975224149       25.5622109568       -1.1431452378  MEMB      163             0.0000000000
     20177       163  DOPE      C218          -18.2320683631       27.1225967478       -2.5884152935  MEMB      163             0.0000000000
     20178       163  DOPE      H18R          -17.2028669917       27.5260954083       -2.4745250648  MEMB      163             0.0000000000
     20179       163  DOPE      H18S          -18.9227365566       27.7460626228       -1.9849752541  MEMB      163             0.0000000000
     20180       163  DOPE      H18T          -18.5174329269       27.2266622072       -3.6557327403  MEMB      163             0.0000000000
     20181       163  DOPE      C33           -21.2568275332       27.3781352615      -13.7849844303  MEMB      163             0.0000000000
     20182       163  DOPE      H3X           -21.2372286537       26.3941409010      -13.2927554367  MEMB      163             0.0000000000
     20183       163  DOPE      H3Y           -21.4572467136       27.2217524167      -14.8718067649  MEMB      163             0.0000000000
     20184       163  DOPE      C34           -22.4580756802       28.1241697457      -13.1827929073  MEMB      163             0.0000000000
     20185       163  DOPE      H4X           -22.5499587082       29.0353762461      -13.8177306671  MEMB      163             0.0000000000
     20186       163  DOPE      H4Y           -23.4028447287       27.5564934348      -13.2964202087  MEMB      163             0.0000000000
     20187       163  DOPE      C35           -22.2942072399       28.5962243965      -11.7327490857  MEMB      163             0.0000000000
     20188       163  DOPE      H5X           -22.5131150944       29.6623906038      -11.8804661628  MEMB      163             0.0000000000
     20189       163  DOPE      H5Y           -21.2609676124       28.4779266531      -11.3639847047  MEMB      163             0.0000000000
     20190       163  DOPE      C36           -23.2988850807       28.2584807460      -10.6254447922  MEMB      163             0.0000000000
     20191       163  DOPE      H6X           -23.1358860907       27.2444722549      -10.2149899958  MEMB      163             0.0000000000
     20192       163  DOPE      H6Y           -24.3333579756       28.2881840499      -11.0336021229  MEMB      163             0.0000000000
     20193       163  DOPE      C37           -23.2090633956       29.2939128387       -9.4760480050  MEMB      163             0.0000000000
     20194       163  DOPE      H7X           -23.6299434305       30.2637375800       -9.8219463696  MEMB      163             0.0000000000
     20195       163  DOPE      H7Y           -23.8530915056       28.9441893189       -8.6453380007  MEMB      163             0.0000000000
     20196       163  DOPE      C38           -21.8182625718       29.5930383741       -8.8675146195  MEMB      163             0.0000000000
     20197       163  DOPE      H8X           -22.0479005271       30.1538166732       -7.9353055689  MEMB      163             0.0000000000
     20198       163  DOPE      H8Y           -21.2383609259       30.3606137677       -9.3967710044  MEMB      163             0.0000000000
     20199       163  DOPE      C39           -20.9057725850       28.4049888355       -8.6743987550  MEMB      163             0.0000000000
     20200       163  DOPE      H9X           -20.7543138179       27.7493038228       -9.5447598893  MEMB      163             0.0000000000
     20201       163  DOPE      C310          -20.3321895250       28.0695772330       -7.5148904612  MEMB      163             0.0000000000
     20202       163  DOPE      H10X          -19.5500745063       27.2983614643       -7.4923387955  MEMB      163             0.0000000000
     20203       163  DOPE      C311          -20.5361248859       28.8397939741       -6.2588505232  MEMB      163             0.0000000000
     20204       163  DOPE      H11X          -19.8633945930       28.5305051604       -5.4304139518  MEMB      163             0.0000000000
     20205       163  DOPE      H11Y          -20.1972394762       29.8271216998       -6.5874869458  MEMB      163             0.0000000000
     20206       163  DOPE      C312          -21.9806498213       28.9443753347       -5.7296149818  MEMB      163             0.0000000000
     20207       163  DOPE      H12X          -22.7123537447       28.8771571019       -6.5626689739  MEMB      163             0.0000000000
     20208       163  DOPE      H12Y          -22.1731080038       29.9010597038       -5.1986142633  MEMB      163             0.0000000000
     20209       163  DOPE      C313          -22.3713459245       27.8483242543       -4.7720101502  MEMB      163             0.0000000000
     20210       163  DOPE      H13X          -23.4414791873       27.6034661382       -4.9612974400  MEMB      163             0.0000000000
     20211       163  DOPE      H13Y          -21.7887237640       26.9436893176       -5.0128389406  MEMB      163             0.0000000000
     20212       163  DOPE      C314          -22.2359879727       28.2414724901       -3.3030645291  MEMB      163             0.0000000000
     20213       163  DOPE      H14X          -22.5810404372       29.2758098064       -3.1015770070  MEMB      163             0.0000000000
     20214       163  DOPE      H14Y          -21.1609562478       28.2218012469       -3.0132299433  MEMB      163             0.0000000000
     20215       163  DOPE      C315          -23.0618992115       27.2343219030       -2.5017232898  MEMB      163             0.0000000000
     20216       163  DOPE      H15X          -22.9510023390       26.2404016187       -2.9900503279  MEMB      163             0.0000000000
     20217       163  DOPE      H15Y          -24.1438020918       27.4532229760       -2.5586782231  MEMB      163             0.0000000000
     20218       163  DOPE      C316          -22.6018735539       27.1074873293       -1.0661338103  MEMB      163             0.0000000000
     20219       163  DOPE      H16X          -23.0674427764       27.9139649473       -0.4654159186  MEMB      163             0.0000000000
     20220       163  DOPE      H16Y          -21.4972353574       27.2370023906       -1.0044891419  MEMB      163             0.0000000000
     20221       163  DOPE      C317          -22.9546446474       25.7493584760       -0.4734995388  MEMB      163             0.0000000000
     20222       163  DOPE      H17X          -24.0558099490       25.6002887539       -0.5120063958  MEMB      163             0.0000000000
     20223       163  DOPE      H17Y          -22.4941301362       24.9285603587       -1.0669632649  MEMB      163             0.0000000000
     20224       163  DOPE      C318          -22.4532850983       25.7097239435        0.9572850386  MEMB      163             0.0000000000
     20225       163  DOPE      H18X          -23.0323752875       25.0026605984        1.5801539400  MEMB      163             0.0000000000
     20226       163  DOPE      H18Y          -21.3735493446       25.4543858256        0.9891462676  MEMB      163             0.0000000000
     20227       163  DOPE      H18Z          -22.5772715937       26.7148471023        1.3927084774  MEMB      163             0.0000000000
     20228       164  DOPE      N             -35.1441657301        4.5529125373      -20.0845313990  MEMB      164             0.0000000000
     20229       164  DOPE      HN1           -35.0581802203        3.5533830695      -19.8274357668  MEMB      164             0.0000000000
     20230       164  DOPE      HN2           -35.8515414734        4.6883865647      -20.8447357258  MEMB      164             0.0000000000
     20231       164  DOPE      HN3           -34.2178932352        4.9232990534      -20.4157630645  MEMB      164             0.0000000000
     20232       164  DOPE      C12           -35.4932141622        5.4541355785      -18.9352740065  MEMB      164             0.0000000000
     20233       164  DOPE      H12A          -34.7769699012        5.2727040977      -18.1113956856  MEMB      164             0.0000000000
     20234       164  DOPE      H12B          -36.5256458617        5.2426874737      -18.5954823471  MEMB      164             0.0000000000
     20235       164  DOPE      C11           -35.3706173774        6.8918795958      -19.4377641218  MEMB      164             0.0000000000
     20236       164  DOPE      H11A          -35.5834679412        7.6263616518      -18.6249014297  MEMB      164             0.0000000000
     20237       164  DOPE      H11B          -36.1421626830        7.0314895828      -20.2220728574  MEMB      164             0.0000000000
     20238       164  DOPE      P             -32.8308734874        7.3087251829      -19.1314612207  MEMB      164             0.0000000000
     20239       164  DOPE      O13           -33.2863867181        7.8047086678      -17.8312747224  MEMB      164             0.0000000000
     20240       164  DOPE      O14           -31.8318106017        8.1209546820      -19.8490157166  MEMB      164             0.0000000000
     20241       164  DOPE      O11           -32.3769762031        5.7981295418      -19.0207427362  MEMB      164             0.0000000000
     20242       164  DOPE      O12           -34.1080828338        7.1305278987      -20.0445805978  MEMB      164             0.0000000000
     20243       164  DOPE      C1            -31.3259229584        5.3089525776      -18.1865722408  MEMB      164             0.0000000000
     20244       164  DOPE      HA            -30.3532420200        5.8238063793      -18.3600773127  MEMB      164             0.0000000000
     20245       164  DOPE      HB            -31.1527474242        4.2580210273      -18.5111232458  MEMB      164             0.0000000000
     20246       164  DOPE      C2            -31.6233678572        5.2178443564      -16.6389927988  MEMB      164             0.0000000000
     20247       164  DOPE      HS            -31.1264339920        4.2727744190      -16.2926652377  MEMB      164             0.0000000000
     20248       164  DOPE      O21           -33.0086223008        5.2690677331      -16.2975562521  MEMB      164             0.0000000000
     20249       164  DOPE      C21           -33.4942064539        4.0983745462      -16.0680219113  MEMB      164             0.0000000000
     20250       164  DOPE      O22           -33.2245992721        3.0757059235      -16.6832995984  MEMB      164             0.0000000000
     20251       164  DOPE      C22           -34.4187356003        4.1414450947      -14.8706261866  MEMB      164             0.0000000000
     20252       164  DOPE      H2R           -34.6730920981        3.0985580542      -14.6752149053  MEMB      164             0.0000000000
     20253       164  DOPE      H2S           -35.3513384601        4.6632285478      -15.1503080882  MEMB      164             0.0000000000
     20254       164  DOPE      C3            -30.9554760743        6.3405558889      -15.8032828998  MEMB      164             0.0000000000
     20255       164  DOPE      HX            -31.1616927818        7.3095493192      -16.3042760595  MEMB      164             0.0000000000
     20256       164  DOPE      HY            -29.9122265491        6.0030464601      -15.8984094211  MEMB      164             0.0000000000
     20257       164  DOPE      O31           -31.2504175382        6.3673729003      -14.3903518238  MEMB      164             0.0000000000
     20258       164  DOPE      C31           -31.4068575031        7.5435305573      -13.7636495112  MEMB      164             0.0000000000
     20259       164  DOPE      O32           -31.3779196494        8.6389724280      -14.2788980998  MEMB      164             0.0000000000
     20260       164  DOPE      C32           -31.5947530546        7.2323470165      -12.2608160100  MEMB      164             0.0000000000
     20261       164  DOPE      H2X           -32.5219473840        6.6426638492      -12.1736360320  MEMB      164             0.0000000000
     20262       164  DOPE      H2Y           -30.7064922169        6.6285561195      -11.9861790093  MEMB      164             0.0000000000
     20263       164  DOPE      C23           -33.8087462674        4.7461705798      -13.5797215657  MEMB      164             0.0000000000
     20264       164  DOPE      H3R           -34.6051752804        4.7361808742      -12.8038044523  MEMB      164             0.0000000000
     20265       164  DOPE      H3S           -33.5581519698        5.8051724369      -13.7909843056  MEMB      164             0.0000000000
     20266       164  DOPE      C24           -32.5750755209        4.0058474054      -13.0235063222  MEMB      164             0.0000000000
     20267       164  DOPE      H4R           -31.6681515293        4.3097499317      -13.5861221161  MEMB      164             0.0000000000
     20268       164  DOPE      H4S           -32.6628885689        2.9270490217      -13.2079757811  MEMB      164             0.0000000000
     20269       164  DOPE      C25           -32.2897812545        4.2149494525      -11.5237264617  MEMB      164             0.0000000000
     20270       164  DOPE      H5R           -33.0920851430        4.7764256416      -10.9910348800  MEMB      164             0.0000000000
     20271       164  DOPE      H5S           -31.3386000470        4.7868301994      -11.4624981008  MEMB      164             0.0000000000
     20272       164  DOPE      C26           -32.0322478760        2.9300285112      -10.7480018659  MEMB      164             0.0000000000
     20273       164  DOPE      H6R           -31.2260933782        2.3568649171      -11.2572258827  MEMB      164             0.0000000000
     20274       164  DOPE      H6S           -32.9427937627        2.2965850367      -10.7352271140  MEMB      164             0.0000000000
     20275       164  DOPE      C27           -31.6109264658        3.2322203578       -9.3079832958  MEMB      164             0.0000000000
     20276       164  DOPE      H7R           -31.4464087679        4.3260834215       -9.1685818161  MEMB      164             0.0000000000
     20277       164  DOPE      H7S           -30.6391346401        2.7355303699       -9.1404998649  MEMB      164             0.0000000000
     20278       164  DOPE      C28           -32.5851028441        2.6704723406       -8.2749067533  MEMB      164             0.0000000000
     20279       164  DOPE      H8R           -32.6271402655        1.5656260163       -8.3940949481  MEMB      164             0.0000000000
     20280       164  DOPE      H8S           -33.6030925043        3.0661671193       -8.4470733275  MEMB      164             0.0000000000
     20281       164  DOPE      C29           -32.1144828861        3.0168497882       -6.9020523725  MEMB      164             0.0000000000
     20282       164  DOPE      H9R           -31.3890763766        2.3346312083       -6.4568667669  MEMB      164             0.0000000000
     20283       164  DOPE      C210          -32.4073063300        4.1194138121       -6.2268610361  MEMB      164             0.0000000000
     20284       164  DOPE      H10R          -31.9653616352        4.2230713059       -5.2401808456  MEMB      164             0.0000000000
     20285       164  DOPE      C211          -33.2628569117        5.2693067418       -6.6531469753  MEMB      164             0.0000000000
     20286       164  DOPE      H11R          -34.1012831030        4.9220915994       -7.2848718142  MEMB      164             0.0000000000
     20287       164  DOPE      H11S          -32.6965224170        5.9688001883       -7.2973580784  MEMB      164             0.0000000000
     20288       164  DOPE      C212          -33.8357086430        5.9884574352       -5.4184316607  MEMB      164             0.0000000000
     20289       164  DOPE      H12R          -33.0767407949        6.5965756020       -4.8932914242  MEMB      164             0.0000000000
     20290       164  DOPE      H12S          -34.2024781380        5.2451991751       -4.6788068023  MEMB      164             0.0000000000
     20291       164  DOPE      C213          -34.9859187771        6.8898974706       -5.8312741221  MEMB      164             0.0000000000
     20292       164  DOPE      H13R          -35.7240095865        7.0188649432       -5.0134915179  MEMB      164             0.0000000000
     20293       164  DOPE      H13S          -35.5121938286        6.3569478970       -6.6540514826  MEMB      164             0.0000000000
     20294       164  DOPE      C214          -34.5082798219        8.2516897474       -6.3534805201  MEMB      164             0.0000000000
     20295       164  DOPE      H14R          -35.3598738616        8.8624812266       -6.7035225793  MEMB      164             0.0000000000
     20296       164  DOPE      H14S          -33.9086772947        8.0417159345       -7.2568983414  MEMB      164             0.0000000000
     20297       164  DOPE      C215          -33.8514599576        9.1854012388       -5.3260129036  MEMB      164             0.0000000000
     20298       164  DOPE      H15R          -33.7454126323       10.1956353003       -5.7872844616  MEMB      164             0.0000000000
     20299       164  DOPE      H15S          -32.8419396834        8.8351171704       -5.0499514350  MEMB      164             0.0000000000
     20300       164  DOPE      C216          -34.7350482809        9.2330762366       -4.0938678168  MEMB      164             0.0000000000
     20301       164  DOPE      H16R          -34.6134182304        8.2947782314       -3.5112262528  MEMB      164             0.0000000000
     20302       164  DOPE      H16S          -35.7721346587        9.2473140248       -4.5032593310  MEMB      164             0.0000000000
     20303       164  DOPE      C217          -34.6604907245       10.4293298736       -3.1592312429  MEMB      164             0.0000000000
     20304       164  DOPE      H17R          -34.7088074919       11.3773909022       -3.7283791891  MEMB      164             0.0000000000
     20305       164  DOPE      H17S          -33.7467359070       10.4705542254       -2.5421924043  MEMB      164             0.0000000000
     20306       164  DOPE      C218          -35.8281630468       10.2713460875       -2.2122933198  MEMB      164             0.0000000000
     20307       164  DOPE      H18R          -35.5507483021        9.5070628688       -1.4569256597  MEMB      164             0.0000000000
     20308       164  DOPE      H18S          -36.6988644143        9.8500394261       -2.7579939820  MEMB      164             0.0000000000
     20309       164  DOPE      H18T          -36.1304319941       11.2161824017       -1.7185287427  MEMB      164             0.0000000000
     20310       164  DOPE      C33           -31.6890479467        8.3695121757      -11.2236028935  MEMB      164             0.0000000000
     20311       164  DOPE      H3X           -32.5969753053        8.9924322359      -11.3765571765  MEMB      164             0.0000000000
     20312       164  DOPE      H3Y           -30.8077250997        9.0302075915      -11.3761170213  MEMB      164             0.0000000000
     20313       164  DOPE      C34           -31.6427478255        7.8947691850       -9.7443897070  MEMB      164             0.0000000000
     20314       164  DOPE      H4X           -32.6193141333        7.4845688393       -9.4128340478  MEMB      164             0.0000000000
     20315       164  DOPE      H4Y           -30.8668182381        7.1078060513       -9.6112866553  MEMB      164             0.0000000000
     20316       164  DOPE      C35           -31.2448475272        9.1326961442       -8.9436524641  MEMB      164             0.0000000000
     20317       164  DOPE      H5X           -31.9269669206        9.9381743965       -9.3107086605  MEMB      164             0.0000000000
     20318       164  DOPE      H5Y           -30.1778450385        9.3213499884       -9.2015987093  MEMB      164             0.0000000000
     20319       164  DOPE      C36           -31.2899610293        9.2734265823       -7.4352122385  MEMB      164             0.0000000000
     20320       164  DOPE      H6X           -32.2163286323        8.8344309840       -7.0933953675  MEMB      164             0.0000000000
     20321       164  DOPE      H6Y           -31.3396457611       10.3470130042       -7.1458371459  MEMB      164             0.0000000000
     20322       164  DOPE      C37           -30.1186240307        8.6235337114       -6.7256930036  MEMB      164             0.0000000000
     20323       164  DOPE      H7X           -29.2234462747        8.6041122552       -7.3849045638  MEMB      164             0.0000000000
     20324       164  DOPE      H7Y           -29.8661963606        9.2344485227       -5.8339896881  MEMB      164             0.0000000000
     20325       164  DOPE      C38           -30.6258226588        7.2242546519       -6.3663958853  MEMB      164             0.0000000000
     20326       164  DOPE      H8X           -30.8500512422        6.8180474474       -7.3755209745  MEMB      164             0.0000000000
     20327       164  DOPE      H8Y           -31.5787560523        7.3927599216       -5.8461761068  MEMB      164             0.0000000000
     20328       164  DOPE      C39           -29.9484522382        6.0914901112       -5.6792125296  MEMB      164             0.0000000000
     20329       164  DOPE      H9X           -29.2433975587        5.5627265041       -6.3310790676  MEMB      164             0.0000000000
     20330       164  DOPE      C310          -30.1560294466        5.5520229729       -4.4661791881  MEMB      164             0.0000000000
     20331       164  DOPE      H10X          -29.5465330457        4.6654018254       -4.3091038213  MEMB      164             0.0000000000
     20332       164  DOPE      C311          -31.0767208768        5.7995252337       -3.2820941724  MEMB      164             0.0000000000
     20333       164  DOPE      H11X          -31.9779962204        5.1615588526       -3.4030064240  MEMB      164             0.0000000000
     20334       164  DOPE      H11Y          -30.5667686509        5.3582777412       -2.4038140600  MEMB      164             0.0000000000
     20335       164  DOPE      C312          -31.5887134029        7.2042341904       -2.8391803207  MEMB      164             0.0000000000
     20336       164  DOPE      H12X          -32.6783136324        7.0738060718       -2.6296382922  MEMB      164             0.0000000000
     20337       164  DOPE      H12Y          -31.4874255735        7.9066054830       -3.6823146052  MEMB      164             0.0000000000
     20338       164  DOPE      C313          -31.0407845390        7.8269655323       -1.5271101090  MEMB      164             0.0000000000
     20339       164  DOPE      H13X          -29.9847579403        8.1500594828       -1.6400891840  MEMB      164             0.0000000000
     20340       164  DOPE      H13Y          -31.6396613053        8.7392679277       -1.3008689200  MEMB      164             0.0000000000
     20341       164  DOPE      C314          -31.2140027965        6.8444563691       -0.3644270691  MEMB      164             0.0000000000
     20342       164  DOPE      H14X          -30.4442095158        6.0635137086       -0.4533322297  MEMB      164             0.0000000000
     20343       164  DOPE      H14Y          -32.2100644410        6.3838877090       -0.4997402244  MEMB      164             0.0000000000
     20344       164  DOPE      C315          -31.1015494793        7.3040239753        1.0848469478  MEMB      164             0.0000000000
     20345       164  DOPE      H15X          -31.1012847890        6.3975271582        1.7355291812  MEMB      164             0.0000000000
     20346       164  DOPE      H15Y          -32.0124888746        7.8666037197        1.3562812945  MEMB      164             0.0000000000
     20347       164  DOPE      C316          -29.8365601758        8.1021971906        1.3735985686  MEMB      164             0.0000000000
     20348       164  DOPE      H16X          -30.1285110694        8.9240851111        2.0670712684  MEMB      164             0.0000000000
     20349       164  DOPE      H16Y          -29.4325326219        8.5778685183        0.4549937863  MEMB      164             0.0000000000
     20350       164  DOPE      C317          -28.7312050318        7.2955746384        2.0681910715  MEMB      164             0.0000000000
     20351       164  DOPE      H17X          -27.9490780270        8.0450115505        2.2805227902  MEMB      164             0.0000000000
     20352       164  DOPE      H17Y          -29.1109116279        6.8609620539        3.0193169104  MEMB      164             0.0000000000
     20353       164  DOPE      C318          -27.9853228802        6.2441497591        1.2633745176  MEMB      164             0.0000000000
     20354       164  DOPE      H18X          -28.6650491796        5.4806857152        0.8440943571  MEMB      164             0.0000000000
     20355       164  DOPE      H18Y          -27.4387873155        6.7657946421        0.4504320870  MEMB      164             0.0000000000
     20356       164  DOPE      H18Z          -27.2295052734        5.7308780994        1.8956002501  MEMB      164             0.0000000000
     20357       165  DOPC      N             -33.3690747245       -8.4929640269      -20.4975759260  MEMB      165             0.0000000000
     20358       165  DOPC      C12           -33.9965167739       -7.1797450642      -20.9242622263  MEMB      165             0.0000000000
     20359       165  DOPC      H12A          -34.8677388304       -7.4180457566      -21.5244824431  MEMB      165             0.0000000000
     20360       165  DOPC      H12B          -33.2840464119       -6.6434925515      -21.5451375330  MEMB      165             0.0000000000
     20361       165  DOPC      C13           -34.4419434679       -9.3225787295      -19.8903535244  MEMB      165             0.0000000000
     20362       165  DOPC      H13A          -34.0372940654      -10.2576068575      -19.5357239958  MEMB      165             0.0000000000
     20363       165  DOPC      H13B          -34.8928788909       -8.7917604457      -19.0511218580  MEMB      165             0.0000000000
     20364       165  DOPC      H13C          -35.2302037249       -9.5541421269      -20.5978476999  MEMB      165             0.0000000000
     20365       165  DOPC      C14           -32.2702330471       -8.2443046713      -19.5033988004  MEMB      165             0.0000000000
     20366       165  DOPC      H14A          -31.5106331454       -7.5771892617      -19.9173271605  MEMB      165             0.0000000000
     20367       165  DOPC      H14B          -32.6693102312       -7.7889211454      -18.5962098338  MEMB      165             0.0000000000
     20368       165  DOPC      H14C          -31.7473771400       -9.1556972825      -19.2440635484  MEMB      165             0.0000000000
     20369       165  DOPC      C15           -32.8285372473       -9.2452423852      -21.6707028854  MEMB      165             0.0000000000
     20370       165  DOPC      H15A          -32.3286171532      -10.1598218116      -21.3540841707  MEMB      165             0.0000000000
     20371       165  DOPC      H15B          -32.1182314561       -8.6448528651      -22.2222274833  MEMB      165             0.0000000000
     20372       165  DOPC      H15C          -33.6270287617       -9.5906281112      -22.3219282490  MEMB      165             0.0000000000
     20373       165  DOPC      C11           -34.4708662072       -6.2244989772      -19.7959097733  MEMB      165             0.0000000000
     20374       165  DOPC      H11A          -33.6406091331       -6.0781558736      -19.0644369706  MEMB      165             0.0000000000
     20375       165  DOPC      H11B          -34.6597547005       -5.2288395980      -20.2536808362  MEMB      165             0.0000000000
     20376       165  DOPC      P             -36.0537668964       -6.2400327717      -17.6841849661  MEMB      165             0.0000000000
     20377       165  DOPC      O13           -36.7197249773       -4.9206304782      -17.8499875854  MEMB      165             0.0000000000
     20378       165  DOPC      O14           -34.8394162462       -6.2248725641      -16.8642769415  MEMB      165             0.0000000000
     20379       165  DOPC      O12           -35.6698053716       -6.7128475026      -19.1783581280  MEMB      165             0.0000000000
     20380       165  DOPC      O11           -37.0662582535       -7.3231425656      -17.1602009583  MEMB      165             0.0000000000
     20381       165  DOPC      C1            -38.2330616844       -7.8237394797      -17.8116916595  MEMB      165             0.0000000000
     20382       165  DOPC      HA            -37.9678677957       -8.2781592711      -18.7871490743  MEMB      165             0.0000000000
     20383       165  DOPC      HB            -38.9400204154       -6.9784422528      -18.0090697268  MEMB      165             0.0000000000
     20384       165  DOPC      C2            -39.0760298047       -8.8416123795      -16.9412321250  MEMB      165             0.0000000000
     20385       165  DOPC      HS            -40.1318630917       -8.7894129680      -17.2986292560  MEMB      165             0.0000000000
     20386       165  DOPC      O21           -38.9135999853       -8.4414146317      -15.5433926893  MEMB      165             0.0000000000
     20387       165  DOPC      C21           -39.9823775762       -7.8957642997      -14.9463182293  MEMB      165             0.0000000000
     20388       165  DOPC      O22           -41.1082678677       -7.9596583768      -15.4025600377  MEMB      165             0.0000000000
     20389       165  DOPC      C22           -39.6321157768       -7.2004950866      -13.5852397470  MEMB      165             0.0000000000
     20390       165  DOPC      H2R           -40.1751370173       -7.7499418814      -12.7939036197  MEMB      165             0.0000000000
     20391       165  DOPC      H2S           -40.0554246195       -6.1792078145      -13.6073492254  MEMB      165             0.0000000000
     20392       165  DOPC      C3            -38.6763541225      -10.3866806995      -17.1939579224  MEMB      165             0.0000000000
     20393       165  DOPC      HX            -38.5229028692      -10.4613585635      -18.2930151133  MEMB      165             0.0000000000
     20394       165  DOPC      HY            -39.5732893445      -11.0162117792      -16.9957703355  MEMB      165             0.0000000000
     20395       165  DOPC      O31           -37.4803845598      -10.9625909650      -16.6162080336  MEMB      165             0.0000000000
     20396       165  DOPC      C31           -37.5823912470      -12.1536383079      -15.9856272545  MEMB      165             0.0000000000
     20397       165  DOPC      O32           -38.6131401614      -12.6765384294      -15.6132571129  MEMB      165             0.0000000000
     20398       165  DOPC      C32           -36.1917268727      -12.8497965616      -15.8716998729  MEMB      165             0.0000000000
     20399       165  DOPC      H2X           -36.4218663230      -13.8179634376      -16.3111087794  MEMB      165             0.0000000000
     20400       165  DOPC      H2Y           -35.6527089492      -12.3940737333      -16.6860821547  MEMB      165             0.0000000000
     20401       165  DOPC      C23           -38.1204415384       -7.0880247087      -13.2314412434  MEMB      165             0.0000000000
     20402       165  DOPC      H3R           -37.6516158321       -6.2570832967      -13.7809939896  MEMB      165             0.0000000000
     20403       165  DOPC      H3S           -37.6344893080       -7.9396870642      -13.6937683650  MEMB      165             0.0000000000
     20404       165  DOPC      C24           -37.6550955648       -7.0947176960      -11.7521792664  MEMB      165             0.0000000000
     20405       165  DOPC      H4R           -37.9288309323       -8.0068794274      -11.1972680136  MEMB      165             0.0000000000
     20406       165  DOPC      H4S           -38.1474110241       -6.3079159055      -11.1569435279  MEMB      165             0.0000000000
     20407       165  DOPC      C25           -36.1114136608       -7.0419422491      -11.6982437654  MEMB      165             0.0000000000
     20408       165  DOPC      H5R           -35.7470804086       -6.0170787644      -11.9268214902  MEMB      165             0.0000000000
     20409       165  DOPC      H5S           -35.6995405352       -7.6751970048      -12.5123243507  MEMB      165             0.0000000000
     20410       165  DOPC      C26           -35.5155939162       -7.5584783468      -10.3783638588  MEMB      165             0.0000000000
     20411       165  DOPC      H6R           -34.4576337699       -7.8621796327      -10.5479102464  MEMB      165             0.0000000000
     20412       165  DOPC      H6S           -36.0655523574       -8.4614786140      -10.0363379375  MEMB      165             0.0000000000
     20413       165  DOPC      C27           -35.5578720430       -6.4362460307       -9.3412894223  MEMB      165             0.0000000000
     20414       165  DOPC      H7R           -36.6268728821       -6.2339566701       -9.0977390635  MEMB      165             0.0000000000
     20415       165  DOPC      H7S           -35.1266228708       -5.5553587576       -9.8637549228  MEMB      165             0.0000000000
     20416       165  DOPC      C28           -34.7314071570       -6.6265083437       -8.0604979923  MEMB      165             0.0000000000
     20417       165  DOPC      H8R           -33.6501237989       -6.6458977794       -8.3265445266  MEMB      165             0.0000000000
     20418       165  DOPC      H8S           -34.9680499742       -7.6209740960       -7.6323557894  MEMB      165             0.0000000000
     20419       165  DOPC      C29           -35.0435797445       -5.4834829694       -7.1095687370  MEMB      165             0.0000000000
     20420       165  DOPC      H9R           -34.6227607866       -4.5078135737       -7.4023487950  MEMB      165             0.0000000000
     20421       165  DOPC      C210          -35.8115069448       -5.5628904792       -6.0000077450  MEMB      165             0.0000000000
     20422       165  DOPC      H10R          -36.0150717235       -4.6590513355       -5.4039969399  MEMB      165             0.0000000000
     20423       165  DOPC      C211          -36.4705635137       -6.8424122149       -5.5544330353  MEMB      165             0.0000000000
     20424       165  DOPC      H11R          -35.6838621404       -7.6252462625       -5.6521940748  MEMB      165             0.0000000000
     20425       165  DOPC      H11S          -37.2993467706       -7.0990853796       -6.2535385720  MEMB      165             0.0000000000
     20426       165  DOPC      C212          -36.9804778499       -7.0656584089       -4.1062982314  MEMB      165             0.0000000000
     20427       165  DOPC      H12R          -36.1366953741       -6.8842877084       -3.4039413738  MEMB      165             0.0000000000
     20428       165  DOPC      H12S          -37.2461829538       -8.1410149163       -4.0126225702  MEMB      165             0.0000000000
     20429       165  DOPC      C213          -38.2104570477       -6.2496506826       -3.6737074887  MEMB      165             0.0000000000
     20430       165  DOPC      H13R          -38.4410713856       -5.5251781516       -4.4873406851  MEMB      165             0.0000000000
     20431       165  DOPC      H13S          -37.9285699767       -5.6568560085       -2.7753195824  MEMB      165             0.0000000000
     20432       165  DOPC      C214          -39.5223011312       -7.0188471829       -3.3569546513  MEMB      165             0.0000000000
     20433       165  DOPC      H14R          -39.9088590194       -7.4721985044       -4.2980717320  MEMB      165             0.0000000000
     20434       165  DOPC      H14S          -40.2664561899       -6.2510506562       -3.0422277343  MEMB      165             0.0000000000
     20435       165  DOPC      C215          -39.5549537542       -8.1276216150       -2.2733141839  MEMB      165             0.0000000000
     20436       165  DOPC      H15R          -39.5287541962       -9.1084805753       -2.7875708695  MEMB      165             0.0000000000
     20437       165  DOPC      H15S          -40.5473948401       -8.0914831378       -1.7673982384  MEMB      165             0.0000000000
     20438       165  DOPC      C216          -38.4925263040       -8.0886183355       -1.1668310029  MEMB      165             0.0000000000
     20439       165  DOPC      H16R          -37.5057173208       -7.8757036751       -1.6092746284  MEMB      165             0.0000000000
     20440       165  DOPC      H16S          -38.4340534487       -9.0866629316       -0.6695935954  MEMB      165             0.0000000000
     20441       165  DOPC      C217          -38.7911248189       -7.0385519140       -0.0977453357  MEMB      165             0.0000000000
     20442       165  DOPC      H17R          -39.8276844078       -7.2027328946        0.2680936946  MEMB      165             0.0000000000
     20443       165  DOPC      H17S          -38.7573148604       -6.0415989172       -0.5881709882  MEMB      165             0.0000000000
     20444       165  DOPC      C218          -37.8347591995       -7.0644321142        1.0966899130  MEMB      165             0.0000000000
     20445       165  DOPC      H18R          -38.1437859847       -6.3184070694        1.8593407587  MEMB      165             0.0000000000
     20446       165  DOPC      H18S          -36.8017274037       -6.8243879046        0.7801401435  MEMB      165             0.0000000000
     20447       165  DOPC      H18T          -37.8354333824       -8.0667910830        1.5702391131  MEMB      165             0.0000000000
     20448       165  DOPC      C33           -35.3310188632      -12.9898454765      -14.4861960780  MEMB      165             0.0000000000
     20449       165  DOPC      H3X           -36.1466044852      -13.0387335984      -13.7461717819  MEMB      165             0.0000000000
     20450       165  DOPC      H3Y           -35.1801842233      -11.9948662255      -14.9496127714  MEMB      165             0.0000000000
     20451       165  DOPC      C34           -34.0804163638      -12.2520653091      -13.7638422518  MEMB      165             0.0000000000
     20452       165  DOPC      H4X           -34.2944713872      -11.1783367280      -13.5346414675  MEMB      165             0.0000000000
     20453       165  DOPC      H4Y           -33.2367464509      -12.2143847829      -14.4739467940  MEMB      165             0.0000000000
     20454       165  DOPC      C35           -33.5475587476      -12.5537133297      -12.3374862997  MEMB      165             0.0000000000
     20455       165  DOPC      H5X           -32.6094953264      -11.9383772941      -12.2572066207  MEMB      165             0.0000000000
     20456       165  DOPC      H5Y           -33.2420543834      -13.5972688132      -12.1591452057  MEMB      165             0.0000000000
     20457       165  DOPC      C36           -34.3730459476      -11.9664876269      -11.1852518133  MEMB      165             0.0000000000
     20458       165  DOPC      H6X           -33.8318663606      -12.1286948674      -10.2211001439  MEMB      165             0.0000000000
     20459       165  DOPC      H6Y           -34.4676621013      -10.8622119007      -11.3086309974  MEMB      165             0.0000000000
     20460       165  DOPC      C37           -35.7620692407      -12.5695881642      -11.0824156665  MEMB      165             0.0000000000
     20461       165  DOPC      H7X           -36.3759225809      -12.2802026976      -11.9561282241  MEMB      165             0.0000000000
     20462       165  DOPC      H7Y           -35.6708411647      -13.6795798580      -11.0583664541  MEMB      165             0.0000000000
     20463       165  DOPC      C38           -36.4640467722      -12.0524330808       -9.8405187364  MEMB      165             0.0000000000
     20464       165  DOPC      H8X           -36.6371898721      -10.9578730393       -9.9077279188  MEMB      165             0.0000000000
     20465       165  DOPC      H8Y           -35.7665736781      -12.1882919663       -8.9976885370  MEMB      165             0.0000000000
     20466       165  DOPC      C39           -37.7540905613      -12.7691882383       -9.6094040576  MEMB      165             0.0000000000
     20467       165  DOPC      H9X           -38.6277867490      -12.3908304068      -10.1440109034  MEMB      165             0.0000000000
     20468       165  DOPC      C310          -37.9430089142      -13.7329903166       -8.7153824586  MEMB      165             0.0000000000
     20469       165  DOPC      H10X          -38.9368460437      -14.1736019739       -8.6807001823  MEMB      165             0.0000000000
     20470       165  DOPC      C311          -36.9128268424      -14.2942355237       -7.7819801658  MEMB      165             0.0000000000
     20471       165  DOPC      H11X          -35.9301451229      -13.8807241371       -8.0136420677  MEMB      165             0.0000000000
     20472       165  DOPC      H11Y          -36.7537508220      -15.3705783070       -8.0104942008  MEMB      165             0.0000000000
     20473       165  DOPC      C312          -37.2853396394      -14.1681857690       -6.2802449316  MEMB      165             0.0000000000
     20474       165  DOPC      H12X          -36.4246686452      -14.4937784359       -5.6646647605  MEMB      165             0.0000000000
     20475       165  DOPC      H12Y          -38.0892105154      -14.9084150581       -6.2043846506  MEMB      165             0.0000000000
     20476       165  DOPC      C313          -37.8321932982      -12.8274753265       -5.7021643510  MEMB      165             0.0000000000
     20477       165  DOPC      H13X          -37.1196299067      -12.1657985714       -6.2227050338  MEMB      165             0.0000000000
     20478       165  DOPC      H13Y          -38.8752589037      -12.6431772698       -6.0257692791  MEMB      165             0.0000000000
     20479       165  DOPC      C314          -37.6205473765      -12.4083392308       -4.1996069100  MEMB      165             0.0000000000
     20480       165  DOPC      H14X          -38.3087052956      -12.8621352291       -3.4679283284  MEMB      165             0.0000000000
     20481       165  DOPC      H14Y          -36.7219974476      -13.0036863601       -4.1278431391  MEMB      165             0.0000000000
     20482       165  DOPC      C315          -37.3006774449      -10.8914514917       -3.8056405583  MEMB      165             0.0000000000
     20483       165  DOPC      H15X          -38.1428152392      -10.4000932883       -3.3103937056  MEMB      165             0.0000000000
     20484       165  DOPC      H15Y          -37.1827850210      -10.4124375932       -4.7866528865  MEMB      165             0.0000000000
     20485       165  DOPC      C316          -35.9349863291      -10.3832930881       -3.2128931500  MEMB      165             0.0000000000
     20486       165  DOPC      H16X          -35.2818186598      -11.2568354827       -3.1342567954  MEMB      165             0.0000000000
     20487       165  DOPC      H16Y          -35.4698393664       -9.6500173272       -3.9213215192  MEMB      165             0.0000000000
     20488       165  DOPC      C317          -35.6593383653       -9.8550571962       -1.8043335919  MEMB      165             0.0000000000
     20489       165  DOPC      H17X          -35.7840202118       -8.7543578649       -1.7539977323  MEMB      165             0.0000000000
     20490       165  DOPC      H17Y          -36.3346972169      -10.3405036389       -1.0698624932  MEMB      165             0.0000000000
     20491       165  DOPC      C318          -34.1746155670      -10.1918708390       -1.5218485799  MEMB      165             0.0000000000
     20492       165  DOPC      H18X          -34.0790118191      -11.2637749547       -1.2678239566  MEMB      165             0.0000000000
     20493       165  DOPC      H18Y          -33.5632924144      -10.0172816491       -2.4356565220  MEMB      165             0.0000000000
     20494       165  DOPC      H18Z          -33.7104209318       -9.6060308249       -0.7140169099  MEMB      165             0.0000000000
     20495       166  DOPC      N              19.6428648227      -26.2634947366      -19.9741071846  MEMB      166             0.0000000000
     20496       166  DOPC      C12            21.0874251149      -26.2582589552      -19.4735719804  MEMB      166             0.0000000000
     20497       166  DOPC      H12A           21.5439863941      -25.2853560609      -19.4790020657  MEMB      166             0.0000000000
     20498       166  DOPC      H12B           21.7021709892      -26.8260644559      -20.1841073508  MEMB      166             0.0000000000
     20499       166  DOPC      C13            19.0958470705      -24.8948459724      -20.0309676918  MEMB      166             0.0000000000
     20500       166  DOPC      H13A           19.8135787020      -24.2764396748      -20.5643794690  MEMB      166             0.0000000000
     20501       166  DOPC      H13B           18.1333782457      -24.8541629512      -20.5310861035  MEMB      166             0.0000000000
     20502       166  DOPC      H13C           18.9926951674      -24.4771654295      -19.0318439161  MEMB      166             0.0000000000
     20503       166  DOPC      C14            18.7828476422      -27.2013684747      -19.1553466291  MEMB      166             0.0000000000
     20504       166  DOPC      H14A           19.2665661722      -28.1909026277      -19.1764387911  MEMB      166             0.0000000000
     20505       166  DOPC      H14B           18.7352630797      -26.9618924172      -18.1071002089  MEMB      166             0.0000000000
     20506       166  DOPC      H14C           17.7955118937      -27.3558603083      -19.5599439902  MEMB      166             0.0000000000
     20507       166  DOPC      C15            19.6981003953      -26.9197914556      -21.3076503886  MEMB      166             0.0000000000
     20508       166  DOPC      H15A           20.2219501414      -26.3457077544      -22.0476163430  MEMB      166             0.0000000000
     20509       166  DOPC      H15B           18.7222375884      -27.2335673900      -21.6718484105  MEMB      166             0.0000000000
     20510       166  DOPC      H15C           20.2255319350      -27.8688598790      -21.1565260288  MEMB      166             0.0000000000
     20511       166  DOPC      C11            21.3614931403      -27.0111216593      -18.1913656556  MEMB      166             0.0000000000
     20512       166  DOPC      H11A           22.3469814774      -26.6920352075      -17.7621440314  MEMB      166             0.0000000000
     20513       166  DOPC      H11B           20.6096550211      -26.8478914549      -17.3890997654  MEMB      166             0.0000000000
     20514       166  DOPC      P              22.6722821280      -29.1873587386      -18.6396231406  MEMB      166             0.0000000000
     20515       166  DOPC      O13            23.7304889759      -28.3461194291      -19.2459735609  MEMB      166             0.0000000000
     20516       166  DOPC      O14            22.3409854680      -30.4961945498      -19.2393767458  MEMB      166             0.0000000000
     20517       166  DOPC      O12            21.3473057409      -28.3557830145      -18.6541271561  MEMB      166             0.0000000000
     20518       166  DOPC      O11            22.7295177572      -29.2053512839      -17.0578151164  MEMB      166             0.0000000000
     20519       166  DOPC      C1             21.6598013944      -29.9341967265      -16.4237045697  MEMB      166             0.0000000000
     20520       166  DOPC      HA             21.6892492531      -31.0051755110      -16.7507169962  MEMB      166             0.0000000000
     20521       166  DOPC      HB             20.6564042822      -29.5248656333      -16.6816730224  MEMB      166             0.0000000000
     20522       166  DOPC      C2             21.8458352328      -29.9436823709      -14.8841147726  MEMB      166             0.0000000000
     20523       166  DOPC      HS             21.0483519711      -30.5829525873      -14.4332920916  MEMB      166             0.0000000000
     20524       166  DOPC      O21            21.8389185896      -28.6223546890      -14.2831723594  MEMB      166             0.0000000000
     20525       166  DOPC      C21            20.6317204415      -28.1244403327      -14.2261110112  MEMB      166             0.0000000000
     20526       166  DOPC      O22            19.6195885927      -28.6449541696      -14.6549788577  MEMB      166             0.0000000000
     20527       166  DOPC      C22            20.6341161472      -26.8015070690      -13.4420095566  MEMB      166             0.0000000000
     20528       166  DOPC      H2R            20.6814754205      -25.9862498951      -14.1942310534  MEMB      166             0.0000000000
     20529       166  DOPC      H2S            21.5382056450      -26.7481813870      -12.8034811117  MEMB      166             0.0000000000
     20530       166  DOPC      C3             23.1860320898      -30.6339180052      -14.5773584398  MEMB      166             0.0000000000
     20531       166  DOPC      HX             23.8983947494      -30.2674077561      -15.3535987155  MEMB      166             0.0000000000
     20532       166  DOPC      HY             23.0561337914      -31.7243140180      -14.7554266966  MEMB      166             0.0000000000
     20533       166  DOPC      O31            23.6139188126      -30.3739298642      -13.2215834227  MEMB      166             0.0000000000
     20534       166  DOPC      C31            24.7851831034      -29.7550487551      -13.1306415842  MEMB      166             0.0000000000
     20535       166  DOPC      O32            25.5664443968      -29.5656573752      -14.0389431879  MEMB      166             0.0000000000
     20536       166  DOPC      C32            25.0192562751      -29.2809652254      -11.7159162598  MEMB      166             0.0000000000
     20537       166  DOPC      H2X            25.2822716865      -28.2045899842      -11.7696179722  MEMB      166             0.0000000000
     20538       166  DOPC      H2Y            24.0894908871      -29.3954894611      -11.1201246654  MEMB      166             0.0000000000
     20539       166  DOPC      C23            19.3461729085      -26.6329706746      -12.5945878278  MEMB      166             0.0000000000
     20540       166  DOPC      H3R            18.4590893479      -26.8831127404      -13.2242513237  MEMB      166             0.0000000000
     20541       166  DOPC      H3S            19.2306823867      -25.5675578946      -12.2916805197  MEMB      166             0.0000000000
     20542       166  DOPC      C24            19.3048715796      -27.5142300852      -11.3305331780  MEMB      166             0.0000000000
     20543       166  DOPC      H4R            19.6471056231      -28.5423659962      -11.5812359397  MEMB      166             0.0000000000
     20544       166  DOPC      H4S            18.2407659453      -27.5922151474      -11.0094769776  MEMB      166             0.0000000000
     20545       166  DOPC      C25            20.1066927676      -26.9694990049      -10.1361812458  MEMB      166             0.0000000000
     20546       166  DOPC      H5R            19.8217213292      -25.8998796504       -9.9981177725  MEMB      166             0.0000000000
     20547       166  DOPC      H5S            21.1884666188      -26.9959707904      -10.3799735243  MEMB      166             0.0000000000
     20548       166  DOPC      C26            19.8229981478      -27.6956169019       -8.7971159150  MEMB      166             0.0000000000
     20549       166  DOPC      H6R            18.7256794617      -27.6516652872       -8.6106200286  MEMB      166             0.0000000000
     20550       166  DOPC      H6S            20.2805539156      -27.1259828833       -7.9779363713  MEMB      166             0.0000000000
     20551       166  DOPC      C27            20.2645558178      -29.1724904700       -8.6955829759  MEMB      166             0.0000000000
     20552       166  DOPC      H7R            20.6431490533      -29.4925637674       -9.6938404689  MEMB      166             0.0000000000
     20553       166  DOPC      H7S            19.3558844466      -29.7738896333       -8.4800532659  MEMB      166             0.0000000000
     20554       166  DOPC      C28            21.3382712093      -29.5663949211       -7.6346470451  MEMB      166             0.0000000000
     20555       166  DOPC      H8R            22.2859854474      -29.0913665596       -7.9714740649  MEMB      166             0.0000000000
     20556       166  DOPC      H8S            21.4963337716      -30.6634704677       -7.7432181474  MEMB      166             0.0000000000
     20557       166  DOPC      C29            21.1430090562      -29.2072544552       -6.1732443372  MEMB      166             0.0000000000
     20558       166  DOPC      H9R            21.0055921566      -28.1325737563       -6.0137269294  MEMB      166             0.0000000000
     20559       166  DOPC      C210           21.1051636019      -29.9676703388       -5.0551527974  MEMB      166             0.0000000000
     20560       166  DOPC      H10R           20.9511098176      -29.4409297950       -4.1016309549  MEMB      166             0.0000000000
     20561       166  DOPC      C211           21.2352320130      -31.4602028340       -4.8515101622  MEMB      166             0.0000000000
     20562       166  DOPC      H11R           21.2428297302      -32.0204156263       -5.8129595428  MEMB      166             0.0000000000
     20563       166  DOPC      H11S           20.3315924206      -31.7982635203       -4.3018506282  MEMB      166             0.0000000000
     20564       166  DOPC      C212           22.3765009652      -31.9595301902       -3.9502237285  MEMB      166             0.0000000000
     20565       166  DOPC      H12R           23.3197160758      -32.0702513632       -4.5232241304  MEMB      166             0.0000000000
     20566       166  DOPC      H12S           22.1185212432      -32.9817218911       -3.5897122018  MEMB      166             0.0000000000
     20567       166  DOPC      C213           22.6726180679      -31.0932049623       -2.7274489222  MEMB      166             0.0000000000
     20568       166  DOPC      H13R           21.7496245109      -30.8965737356       -2.1480191735  MEMB      166             0.0000000000
     20569       166  DOPC      H13S           23.0444640046      -30.1061321068       -3.0742136098  MEMB      166             0.0000000000
     20570       166  DOPC      C214           23.7398098644      -31.8105620570       -1.8949255329  MEMB      166             0.0000000000
     20571       166  DOPC      H14R           24.5030527657      -32.1821891714       -2.6195510325  MEMB      166             0.0000000000
     20572       166  DOPC      H14S           23.2977690036      -32.6921248103       -1.3848335868  MEMB      166             0.0000000000
     20573       166  DOPC      C215           24.4869822215      -30.9300514539       -0.9034856941  MEMB      166             0.0000000000
     20574       166  DOPC      H15R           25.0558482110      -31.5441465746       -0.1720934667  MEMB      166             0.0000000000
     20575       166  DOPC      H15S           23.7750671947      -30.3330379855       -0.3232291310  MEMB      166             0.0000000000
     20576       166  DOPC      C216           25.4418043625      -30.0193783103       -1.6639803751  MEMB      166             0.0000000000
     20577       166  DOPC      H16R           24.8543653733      -29.4679245914       -2.4282971651  MEMB      166             0.0000000000
     20578       166  DOPC      H16S           26.1909531040      -30.6724623341       -2.1538620703  MEMB      166             0.0000000000
     20579       166  DOPC      C217           26.1469725556      -28.9993419196       -0.7963721756  MEMB      166             0.0000000000
     20580       166  DOPC      H17R           27.1575267844      -29.3732238749       -0.5232112507  MEMB      166             0.0000000000
     20581       166  DOPC      H17S           25.5360621907      -28.9995395115        0.1210183688  MEMB      166             0.0000000000
     20582       166  DOPC      C218           26.2022942942      -27.5668442136       -1.3432869895  MEMB      166             0.0000000000
     20583       166  DOPC      H18R           26.0430731168      -26.8393437238       -0.5186008412  MEMB      166             0.0000000000
     20584       166  DOPC      H18S           25.4208300543      -27.3886850443       -2.1073742418  MEMB      166             0.0000000000
     20585       166  DOPC      H18T           27.1869110366      -27.3485467362       -1.7988776343  MEMB      166             0.0000000000
     20586       166  DOPC      C33            26.1691892328      -30.1074539530      -11.1328302574  MEMB      166             0.0000000000
     20587       166  DOPC      H3X            27.1214997417      -29.9789691714      -11.6472592052  MEMB      166             0.0000000000
     20588       166  DOPC      H3Y            25.9356735009      -31.1751802030      -11.2848414120  MEMB      166             0.0000000000
     20589       166  DOPC      C34            26.3957491384      -29.8733022208       -9.6575808833  MEMB      166             0.0000000000
     20590       166  DOPC      H4X            27.1817524026      -30.5514165224       -9.2540309395  MEMB      166             0.0000000000
     20591       166  DOPC      H4Y            25.4342771783      -30.1257193763       -9.1726431833  MEMB      166             0.0000000000
     20592       166  DOPC      C35            26.7185469829      -28.4688115892       -9.2296124533  MEMB      166             0.0000000000
     20593       166  DOPC      H5X            26.5071215382      -27.7113700318      -10.0113160171  MEMB      166             0.0000000000
     20594       166  DOPC      H5Y            27.7829431685      -28.4084611314       -8.9372233363  MEMB      166             0.0000000000
     20595       166  DOPC      C36            25.9380284735      -28.2106396051       -7.9684063402  MEMB      166             0.0000000000
     20596       166  DOPC      H6X            24.9149236789      -28.6454886432       -7.9957508472  MEMB      166             0.0000000000
     20597       166  DOPC      H6Y            26.4868784423      -28.7218253492       -7.1614652974  MEMB      166             0.0000000000
     20598       166  DOPC      C37            25.7906928679      -26.7415468725       -7.7309279360  MEMB      166             0.0000000000
     20599       166  DOPC      H7X            25.7160214760      -26.6193916975       -6.6384088845  MEMB      166             0.0000000000
     20600       166  DOPC      H7Y            26.7317274138      -26.2383547906       -8.0445148074  MEMB      166             0.0000000000
     20601       166  DOPC      C38            24.5896808999      -26.2481128490       -8.5698486187  MEMB      166             0.0000000000
     20602       166  DOPC      H8X            24.6934420141      -26.7471384345       -9.5608470000  MEMB      166             0.0000000000
     20603       166  DOPC      H8Y            24.7199159967      -25.1822440268       -8.8073054588  MEMB      166             0.0000000000
     20604       166  DOPC      C39            23.1684355099      -26.4587381599       -8.0980103648  MEMB      166             0.0000000000
     20605       166  DOPC      H9X            22.5201716678      -26.8286606232       -8.9003192866  MEMB      166             0.0000000000
     20606       166  DOPC      C310           22.6082245241      -26.2913010220       -6.8788656564  MEMB      166             0.0000000000
     20607       166  DOPC      H10X           21.5221051411      -26.3549722667       -6.7818813936  MEMB      166             0.0000000000
     20608       166  DOPC      C311           23.2517479262      -25.8337087074       -5.6137098434  MEMB      166             0.0000000000
     20609       166  DOPC      H11X           22.8626547497      -24.8261626608       -5.3544169424  MEMB      166             0.0000000000
     20610       166  DOPC      H11Y           24.2949669373      -25.7093602035       -5.8700552573  MEMB      166             0.0000000000
     20611       166  DOPC      C312           23.3390244775      -26.6741532874       -4.3212186723  MEMB      166             0.0000000000
     20612       166  DOPC      H12X           24.2247399402      -26.3015058127       -3.7484044102  MEMB      166             0.0000000000
     20613       166  DOPC      H12Y           23.5403084203      -27.7483855663       -4.5131947883  MEMB      166             0.0000000000
     20614       166  DOPC      C313           22.1531757762      -26.4579606824       -3.3918340330  MEMB      166             0.0000000000
     20615       166  DOPC      H13X           21.6431629019      -25.5060850564       -3.6359089895  MEMB      166             0.0000000000
     20616       166  DOPC      H13Y           21.4221894905      -27.2862337362       -3.5415560978  MEMB      166             0.0000000000
     20617       166  DOPC      C314           22.5837223275      -26.4339690526       -1.9226091053  MEMB      166             0.0000000000
     20618       166  DOPC      H14X           21.6914324877      -26.7705965410       -1.3850804879  MEMB      166             0.0000000000
     20619       166  DOPC      H14Y           23.3520127100      -27.2093598153       -1.7330974689  MEMB      166             0.0000000000
     20620       166  DOPC      C315           23.0733473952      -25.0977032571       -1.3261322409  MEMB      166             0.0000000000
     20621       166  DOPC      H15X           22.3445101393      -24.2874598533       -1.5428176673  MEMB      166             0.0000000000
     20622       166  DOPC      H15Y           24.0301246422      -24.8222209695       -1.8098468431  MEMB      166             0.0000000000
     20623       166  DOPC      C316           23.3304402290      -25.2514192102        0.1878988126  MEMB      166             0.0000000000
     20624       166  DOPC      H16X           22.6829880454      -26.0712268166        0.5266617614  MEMB      166             0.0000000000
     20625       166  DOPC      H16Y           24.3707466891      -25.5792488260        0.3799319722  MEMB      166             0.0000000000
     20626       166  DOPC      C317           22.9382091106      -24.1092039289        1.1240145128  MEMB      166             0.0000000000
     20627       166  DOPC      H17X           22.9064508808      -24.5211325186        2.1635145378  MEMB      166             0.0000000000
     20628       166  DOPC      H17Y           23.7305290109      -23.3378198973        1.1067573913  MEMB      166             0.0000000000
     20629       166  DOPC      C318           21.5721311436      -23.5079426863        0.8090534926  MEMB      166             0.0000000000
     20630       166  DOPC      H18X           21.0985465046      -23.1033760274        1.7255252293  MEMB      166             0.0000000000
     20631       166  DOPC      H18Y           21.6457364804      -22.6990513290        0.0519730705  MEMB      166             0.0000000000
     20632       166  DOPC      H18Z           20.9067161766      -24.2860260893        0.3910997676  MEMB      166             0.0000000000
     20633       167  DOPE      N             -10.9892860467       33.3698617434      -21.0024449363  MEMB      167             0.0000000000
     20634       167  DOPE      HN1           -10.4689945716       33.3408909182      -21.9004020807  MEMB      167             0.0000000000
     20635       167  DOPE      HN2           -11.3792019122       32.4169096017      -20.8387266421  MEMB      167             0.0000000000
     20636       167  DOPE      HN3           -11.7621300281       34.0716050743      -21.1365238406  MEMB      167             0.0000000000
     20637       167  DOPE      C12           -10.0181416812       33.7832765212      -19.9105838621  MEMB      167             0.0000000000
     20638       167  DOPE      H12A          -10.5607152983       33.7530768831      -18.9445721559  MEMB      167             0.0000000000
     20639       167  DOPE      H12B           -9.7018664650       34.8240808740      -20.1086131957  MEMB      167             0.0000000000
     20640       167  DOPE      C11            -8.7625124957       32.8900277426      -19.8162506890  MEMB      167             0.0000000000
     20641       167  DOPE      H11A           -8.1429752638       32.9526056532      -20.7393947550  MEMB      167             0.0000000000
     20642       167  DOPE      H11B           -9.0738253817       31.8300903093      -19.7009851337  MEMB      167             0.0000000000
     20643       167  DOPE      P              -6.7187923758       34.1576914498      -18.5689945034  MEMB      167             0.0000000000
     20644       167  DOPE      O13            -6.8319113813       34.9751690539      -17.3445356464  MEMB      167             0.0000000000
     20645       167  DOPE      O14            -6.5397303350       34.8202337213      -19.8768827115  MEMB      167             0.0000000000
     20646       167  DOPE      O11            -5.5624224678       33.0920679875      -18.3650612729  MEMB      167             0.0000000000
     20647       167  DOPE      O12            -8.0231251773       33.2425635900      -18.6609330113  MEMB      167             0.0000000000
     20648       167  DOPE      C1             -5.7614433107       31.7825864110      -17.8357774672  MEMB      167             0.0000000000
     20649       167  DOPE      HA             -4.7634805382       31.2929604010      -17.7636253118  MEMB      167             0.0000000000
     20650       167  DOPE      HB             -6.3761887036       31.1657228711      -18.5277342910  MEMB      167             0.0000000000
     20651       167  DOPE      C2             -6.3742025406       31.7898678560      -16.4040456265  MEMB      167             0.0000000000
     20652       167  DOPE      HS             -7.4474376074       32.0766375359      -16.5293903746  MEMB      167             0.0000000000
     20653       167  DOPE      O21            -5.6318949423       32.7462879417      -15.6276207117  MEMB      167             0.0000000000
     20654       167  DOPE      C21            -6.3852327782       33.3985646291      -14.7587783845  MEMB      167             0.0000000000
     20655       167  DOPE      O22            -7.5166559547       33.0900284569      -14.4170743540  MEMB      167             0.0000000000
     20656       167  DOPE      C22            -5.5905238317       34.5595885863      -14.1955679838  MEMB      167             0.0000000000
     20657       167  DOPE      H2R            -5.3996592150       35.2373885961      -15.0570628819  MEMB      167             0.0000000000
     20658       167  DOPE      H2S            -4.6237024825       34.1900298557      -13.8007527814  MEMB      167             0.0000000000
     20659       167  DOPE      C3             -6.3204119706       30.3876706753      -15.7415342207  MEMB      167             0.0000000000
     20660       167  DOPE      HX             -5.2635057114       30.2005681211      -15.4426020315  MEMB      167             0.0000000000
     20661       167  DOPE      HY             -6.5807007692       29.6523227238      -16.5285712514  MEMB      167             0.0000000000
     20662       167  DOPE      O31            -7.2727328055       30.2141054424      -14.6666863945  MEMB      167             0.0000000000
     20663       167  DOPE      C31            -6.8088286020       30.4749990280      -13.4559387907  MEMB      167             0.0000000000
     20664       167  DOPE      O32            -5.6649533679       30.8013301270      -13.1881605246  MEMB      167             0.0000000000
     20665       167  DOPE      C32            -7.8949852277       30.2444936726      -12.4001954883  MEMB      167             0.0000000000
     20666       167  DOPE      H2X            -8.7760331840       30.8612554986      -12.6715693003  MEMB      167             0.0000000000
     20667       167  DOPE      H2Y            -8.1795047294       29.1739146930      -12.3971313689  MEMB      167             0.0000000000
     20668       167  DOPE      C23            -6.3697399235       35.3408881420      -13.1232343269  MEMB      167             0.0000000000
     20669       167  DOPE      H3R            -6.1622743103       34.9142588069      -12.1303483178  MEMB      167             0.0000000000
     20670       167  DOPE      H3S            -7.4707502099       35.2432833743      -13.2616574466  MEMB      167             0.0000000000
     20671       167  DOPE      C24            -6.0530530177       36.8381368578      -13.1784630039  MEMB      167             0.0000000000
     20672       167  DOPE      H4R            -6.6805692677       37.3518423557      -12.4257397566  MEMB      167             0.0000000000
     20673       167  DOPE      H4S            -6.3653746062       37.2111234127      -14.1786582469  MEMB      167             0.0000000000
     20674       167  DOPE      C25            -4.5835482713       37.2468045211      -12.9893063581  MEMB      167             0.0000000000
     20675       167  DOPE      H5R            -4.5226670050       38.3567390837      -12.9512489621  MEMB      167             0.0000000000
     20676       167  DOPE      H5S            -4.0083147275       36.9060752461      -13.8817462471  MEMB      167             0.0000000000
     20677       167  DOPE      C26            -3.9166236071       36.6712646567      -11.7466331764  MEMB      167             0.0000000000
     20678       167  DOPE      H6R            -2.9163055770       37.1301182778      -11.5898524358  MEMB      167             0.0000000000
     20679       167  DOPE      H6S            -3.7472404698       35.5916695688      -11.9686619992  MEMB      167             0.0000000000
     20680       167  DOPE      C27            -4.7304701874       36.7808310965      -10.4487021311  MEMB      167             0.0000000000
     20681       167  DOPE      H7R            -5.7622188782       37.1378763718      -10.6266060182  MEMB      167             0.0000000000
     20682       167  DOPE      H7S            -4.2535007382       37.5405319046       -9.7887821793  MEMB      167             0.0000000000
     20683       167  DOPE      C28            -4.7920316698       35.4188373469       -9.7603515736  MEMB      167             0.0000000000
     20684       167  DOPE      H8R            -5.2429527834       34.6984004031      -10.4624564812  MEMB      167             0.0000000000
     20685       167  DOPE      H8S            -5.5038801753       35.3560148467       -8.9177772196  MEMB      167             0.0000000000
     20686       167  DOPE      C29            -3.3707367492       35.0920087212       -9.3606360559  MEMB      167             0.0000000000
     20687       167  DOPE      H9R            -2.9139651245       35.7522661981       -8.6099031447  MEMB      167             0.0000000000
     20688       167  DOPE      C210           -2.7680493232       33.9511700034       -9.7077261595  MEMB      167             0.0000000000
     20689       167  DOPE      H10R           -1.7606714044       33.7107162129       -9.3366199731  MEMB      167             0.0000000000
     20690       167  DOPE      C211           -3.5166951847       32.9208687540      -10.5114951304  MEMB      167             0.0000000000
     20691       167  DOPE      H11R           -2.9031049121       32.1239854889      -10.9758322498  MEMB      167             0.0000000000
     20692       167  DOPE      H11S           -4.0828131665       33.3575553556      -11.3652535048  MEMB      167             0.0000000000
     20693       167  DOPE      C212           -4.4446112795       32.3533147074       -9.4200731209  MEMB      167             0.0000000000
     20694       167  DOPE      H12R           -5.2599304235       31.7967604811       -9.9191017595  MEMB      167             0.0000000000
     20695       167  DOPE      H12S           -4.9497980840       33.1252348329       -8.8047247397  MEMB      167             0.0000000000
     20696       167  DOPE      C213           -3.7383599558       31.4190338770       -8.4378303189  MEMB      167             0.0000000000
     20697       167  DOPE      H13R           -2.6740841536       31.3574091054       -8.7450026348  MEMB      167             0.0000000000
     20698       167  DOPE      H13S           -4.1880286731       30.4631966127       -8.6958347904  MEMB      167             0.0000000000
     20699       167  DOPE      C214           -3.7847396956       31.7119974343       -6.9087520081  MEMB      167             0.0000000000
     20700       167  DOPE      H14R           -3.3389527719       32.7256935786       -6.7732813357  MEMB      167             0.0000000000
     20701       167  DOPE      H14S           -3.1215838156       30.9922031050       -6.3823139276  MEMB      167             0.0000000000
     20702       167  DOPE      C215           -5.1246583272       31.7061839235       -6.1393463882  MEMB      167             0.0000000000
     20703       167  DOPE      H15R           -5.8767780676       32.2302697568       -6.7541361045  MEMB      167             0.0000000000
     20704       167  DOPE      H15S           -4.9896097313       32.3331793416       -5.2287991623  MEMB      167             0.0000000000
     20705       167  DOPE      C216           -5.7274190156       30.3624738247       -5.6517531031  MEMB      167             0.0000000000
     20706       167  DOPE      H16R           -5.9653214101       29.7212914709       -6.5258961574  MEMB      167             0.0000000000
     20707       167  DOPE      H16S           -6.7169508735       30.6127177664       -5.2076788780  MEMB      167             0.0000000000
     20708       167  DOPE      C217           -4.9591330824       29.5062925396       -4.6077233167  MEMB      167             0.0000000000
     20709       167  DOPE      H17R           -4.2414391760       28.8503188852       -5.1298838519  MEMB      167             0.0000000000
     20710       167  DOPE      H17S           -5.6990079579       28.8075329637       -4.1491344296  MEMB      167             0.0000000000
     20711       167  DOPE      C218           -4.1642383135       30.2000620200       -3.4917181392  MEMB      167             0.0000000000
     20712       167  DOPE      H18R           -3.6790771986       29.4313954966       -2.8490899913  MEMB      167             0.0000000000
     20713       167  DOPE      H18S           -4.8002539182       30.8144363779       -2.8356016510  MEMB      167             0.0000000000
     20714       167  DOPE      H18T           -3.3705919035       30.8524191015       -3.9080753567  MEMB      167             0.0000000000
     20715       167  DOPE      C33            -7.3114679467       30.6786027794      -11.0411839650  MEMB      167             0.0000000000
     20716       167  DOPE      H3X            -7.0456176378       31.7566250274      -11.1400596008  MEMB      167             0.0000000000
     20717       167  DOPE      H3Y            -6.3705339898       30.1203864152      -10.8351486432  MEMB      167             0.0000000000
     20718       167  DOPE      C34            -8.2039571780       30.5291167537       -9.8077549117  MEMB      167             0.0000000000
     20719       167  DOPE      H4X            -9.2033366604       30.9585078687      -10.0256334294  MEMB      167             0.0000000000
     20720       167  DOPE      H4Y            -8.3365851596       29.4523752800       -9.5645000052  MEMB      167             0.0000000000
     20721       167  DOPE      C35            -7.6015741753       31.2631568548       -8.5982998166  MEMB      167             0.0000000000
     20722       167  DOPE      H5X            -6.5655182347       30.8959563546       -8.4471081263  MEMB      167             0.0000000000
     20723       167  DOPE      H5Y            -8.1548617898       30.9902223239       -7.6709513772  MEMB      167             0.0000000000
     20724       167  DOPE      C36            -7.5847582972       32.8024356338       -8.7554606131  MEMB      167             0.0000000000
     20725       167  DOPE      H6X            -6.8818356420       33.1139973860       -9.5519406719  MEMB      167             0.0000000000
     20726       167  DOPE      H6Y            -7.2437340931       33.2725578491       -7.8090037737  MEMB      167             0.0000000000
     20727       167  DOPE      C37            -8.9376805495       33.3958160075       -9.1263097815  MEMB      167             0.0000000000
     20728       167  DOPE      H7X            -8.8823667120       34.5069160850       -9.1731573199  MEMB      167             0.0000000000
     20729       167  DOPE      H7Y            -9.2025011044       33.0587628970      -10.1513492041  MEMB      167             0.0000000000
     20730       167  DOPE      C38            -9.9963426846       32.9333403469       -8.1389757238  MEMB      167             0.0000000000
     20731       167  DOPE      H8X           -10.0207377893       31.8278082385       -8.0477156806  MEMB      167             0.0000000000
     20732       167  DOPE      H8Y           -10.9945693333       33.1929534116       -8.5057736556  MEMB      167             0.0000000000
     20733       167  DOPE      C39            -9.7775698178       33.5921181766       -6.8203316300  MEMB      167             0.0000000000
     20734       167  DOPE      H9X            -9.0597433365       34.4252092714       -6.7721410667  MEMB      167             0.0000000000
     20735       167  DOPE      C310          -10.3969323452       33.1755958979       -5.7224484737  MEMB      167             0.0000000000
     20736       167  DOPE      H10X          -10.2442882322       33.7350484532       -4.7858136306  MEMB      167             0.0000000000
     20737       167  DOPE      C311          -11.3646880790       32.0218728325       -5.6514930064  MEMB      167             0.0000000000
     20738       167  DOPE      H11X          -12.2446275696       32.2825044334       -5.0251172715  MEMB      167             0.0000000000
     20739       167  DOPE      H11Y          -11.7541710745       31.6900149699       -6.6405283847  MEMB      167             0.0000000000
     20740       167  DOPE      C312          -10.5785053852       30.8729737066       -5.0271365946  MEMB      167             0.0000000000
     20741       167  DOPE      H12X           -9.8949555446       30.4336648707       -5.7910378209  MEMB      167             0.0000000000
     20742       167  DOPE      H12Y          -11.2781189270       30.0786258475       -4.6946651934  MEMB      167             0.0000000000
     20743       167  DOPE      C313           -9.7307677224       31.3719430179       -3.8603873864  MEMB      167             0.0000000000
     20744       167  DOPE      H13X           -8.7993891277       31.8379682613       -4.2590757312  MEMB      167             0.0000000000
     20745       167  DOPE      H13Y          -10.2897729147       32.1579914818       -3.2994983153  MEMB      167             0.0000000000
     20746       167  DOPE      C314           -9.3542276649       30.3103343909       -2.8716620346  MEMB      167             0.0000000000
     20747       167  DOPE      H14X           -8.8323022731       29.4550933884       -3.3501279163  MEMB      167             0.0000000000
     20748       167  DOPE      H14Y          -10.2877184317       29.9407479396       -2.3924769468  MEMB      167             0.0000000000
     20749       167  DOPE      C315           -8.4925163166       30.9420942128       -1.7987760891  MEMB      167             0.0000000000
     20750       167  DOPE      H15X           -8.2826731919       30.1031008738       -1.0938084660  MEMB      167             0.0000000000
     20751       167  DOPE      H15Y           -9.0982610865       31.7346382430       -1.3044577180  MEMB      167             0.0000000000
     20752       167  DOPE      C316           -7.1470664544       31.5236666425       -2.2466847663  MEMB      167             0.0000000000
     20753       167  DOPE      H16X           -6.9532615321       31.1587868878       -3.2725333720  MEMB      167             0.0000000000
     20754       167  DOPE      H16Y           -6.3658878094       31.0803995946       -1.5984335908  MEMB      167             0.0000000000
     20755       167  DOPE      C317           -6.9487031966       33.0539465852       -2.2247735141  MEMB      167             0.0000000000
     20756       167  DOPE      H17X           -5.8975202720       33.2540990546       -2.5453857816  MEMB      167             0.0000000000
     20757       167  DOPE      H17Y           -7.6084388871       33.4799460119       -3.0085064922  MEMB      167             0.0000000000
     20758       167  DOPE      C318           -7.1751103187       33.7878317170       -0.8926219501  MEMB      167             0.0000000000
     20759       167  DOPE      H18X           -8.2331816787       33.7128992015       -0.5660143628  MEMB      167             0.0000000000
     20760       167  DOPE      H18Y           -6.5225255157       33.3906922001       -0.0910138056  MEMB      167             0.0000000000
     20761       167  DOPE      H18Z           -6.9266097686       34.8671650417       -0.9946793183  MEMB      167             0.0000000000
     20762       168  CHL1      C3             33.6431893233       -6.1998549331      -17.3404191637  MEMB      168             0.0000000000
     20763       168  CHL1      H3             34.2490496187       -7.1199746410      -17.1794542899  MEMB      168             0.0000000000
     20764       168  CHL1      O3             33.4172813328       -6.0689495854      -18.7315288835  MEMB      168             0.0000000000
     20765       168  CHL1      H3'            32.8565429492       -6.8209565551      -18.9373864806  MEMB      168             0.0000000000
     20766       168  CHL1      C4             32.2940835583       -6.3226033643      -16.6132190350  MEMB      168             0.0000000000
     20767       168  CHL1      H4A            31.6973021567       -5.4185699387      -16.8609079925  MEMB      168             0.0000000000
     20768       168  CHL1      H4B            31.7415652710       -7.1933480757      -17.0313147368  MEMB      168             0.0000000000
     20769       168  CHL1      C5             32.4599109796       -6.4346953505      -15.1120294821  MEMB      168             0.0000000000
     20770       168  CHL1      C6             31.9825204153       -7.4856565319      -14.4252432799  MEMB      168             0.0000000000
     20771       168  CHL1      H6             31.4361446681       -8.2749868095      -14.9601222093  MEMB      168             0.0000000000
     20772       168  CHL1      C7             32.0776482662       -7.6328090406      -12.9324949596  MEMB      168             0.0000000000
     20773       168  CHL1      H7A            31.0870827500       -7.9062862375      -12.5061689906  MEMB      168             0.0000000000
     20774       168  CHL1      H7B            32.7816793575       -8.4605587741      -12.7005827220  MEMB      168             0.0000000000
     20775       168  CHL1      C8             32.5830721722       -6.3523029534      -12.2092219373  MEMB      168             0.0000000000
     20776       168  CHL1      H8             31.7298443980       -5.6460876974      -12.1170242172  MEMB      168             0.0000000000
     20777       168  CHL1      C14            33.0927445049       -6.7142674914      -10.8172644572  MEMB      168             0.0000000000
     20778       168  CHL1      H14            33.9700154680       -7.3897558979      -10.9906194281  MEMB      168             0.0000000000
     20779       168  CHL1      C15            32.1530346141       -7.5175393025       -9.8984648090  MEMB      168             0.0000000000
     20780       168  CHL1      H15A           31.1300155851       -7.0828604639       -9.9401936129  MEMB      168             0.0000000000
     20781       168  CHL1      H15B           32.1027073887       -8.5853356250      -10.1890821103  MEMB      168             0.0000000000
     20782       168  CHL1      C16            32.7513209209       -7.3165688201       -8.4975580966  MEMB      168             0.0000000000
     20783       168  CHL1      H16A           31.9648877461       -6.8587031712       -7.8612447052  MEMB      168             0.0000000000
     20784       168  CHL1      H16B           33.0792438905       -8.2691024753       -8.0373435536  MEMB      168             0.0000000000
     20785       168  CHL1      C17            33.9505581234       -6.3258703981       -8.6626090906  MEMB      168             0.0000000000
     20786       168  CHL1      H17            34.8391740047       -6.9603943078       -8.8947377231  MEMB      168             0.0000000000
     20787       168  CHL1      C13            33.6348721964       -5.5590811233       -9.9736104361  MEMB      168             0.0000000000
     20788       168  CHL1      C18            32.5255484953       -4.5166291225       -9.6731803377  MEMB      168             0.0000000000
     20789       168  CHL1      H18A           32.9436987384       -3.6776710373       -9.0797794242  MEMB      168             0.0000000000
     20790       168  CHL1      H18B           32.1138573939       -4.0940151006      -10.6100772970  MEMB      168             0.0000000000
     20791       168  CHL1      H18C           31.6817666516       -4.9580053435       -9.1062476659  MEMB      168             0.0000000000
     20792       168  CHL1      C12            34.8058004348       -4.9382648522      -10.7670946997  MEMB      168             0.0000000000
     20793       168  CHL1      H12A           35.1962634379       -4.0347376909      -10.2591418971  MEMB      168             0.0000000000
     20794       168  CHL1      H12B           35.6264787937       -5.6848178182      -10.8371670689  MEMB      168             0.0000000000
     20795       168  CHL1      C11            34.3795430655       -4.5280146536      -12.1965268121  MEMB      168             0.0000000000
     20796       168  CHL1      H11A           33.6775252806       -3.6730742019      -12.1034663117  MEMB      168             0.0000000000
     20797       168  CHL1      H11B           35.2779178743       -4.1663141593      -12.7358298301  MEMB      168             0.0000000000
     20798       168  CHL1      C9             33.7026832339       -5.6746304988      -13.0074963369  MEMB      168             0.0000000000
     20799       168  CHL1      H9             34.4881657949       -6.4613785827      -13.1172144282  MEMB      168             0.0000000000
     20800       168  CHL1      C10            33.2790559665       -5.3051759332      -14.4646630004  MEMB      168             0.0000000000
     20801       168  CHL1      C19            32.3791950912       -4.0554246693      -14.4329878405  MEMB      168             0.0000000000
     20802       168  CHL1      H19A           31.4940170588       -4.1947407283      -13.7797829040  MEMB      168             0.0000000000
     20803       168  CHL1      H19B           32.9798925983       -3.2100003268      -14.0508395561  MEMB      168             0.0000000000
     20804       168  CHL1      H19C           32.0361030821       -3.7726997735      -15.4505958891  MEMB      168             0.0000000000
     20805       168  CHL1      C1             34.5443457288       -4.9577293584      -15.3078779220  MEMB      168             0.0000000000
     20806       168  CHL1      H1A            34.9100834738       -3.9564076432      -15.0087419675  MEMB      168             0.0000000000
     20807       168  CHL1      H1B            35.3389035545       -5.6790744941      -15.0686523230  MEMB      168             0.0000000000
     20808       168  CHL1      C2             34.3959932385       -4.9676166940      -16.8437114263  MEMB      168             0.0000000000
     20809       168  CHL1      H2A            35.4042075684       -4.9523925324      -17.3171665727  MEMB      168             0.0000000000
     20810       168  CHL1      H2B            33.8545902947       -4.0532614065      -17.1673981419  MEMB      168             0.0000000000
     20811       168  CHL1      C20            34.2877123814       -5.5568198475       -7.3690723765  MEMB      168             0.0000000000
     20812       168  CHL1      H20            33.4551254726       -4.8620687890       -7.1149335607  MEMB      168             0.0000000000
     20813       168  CHL1      C21            35.5675514890       -4.7190224406       -7.5747361485  MEMB      168             0.0000000000
     20814       168  CHL1      H21A           35.9179129671       -4.3049680172       -6.6056709623  MEMB      168             0.0000000000
     20815       168  CHL1      H21B           35.3651079469       -3.8569691621       -8.2394505335  MEMB      168             0.0000000000
     20816       168  CHL1      H21C           36.3794825388       -5.3419308019       -8.0071626822  MEMB      168             0.0000000000
     20817       168  CHL1      C22            34.4937903855       -6.4925213914       -6.1420107945  MEMB      168             0.0000000000
     20818       168  CHL1      H22A           34.8068321889       -7.4967417674       -6.4906771416  MEMB      168             0.0000000000
     20819       168  CHL1      H22B           35.3285865491       -6.1021939130       -5.5195842083  MEMB      168             0.0000000000
     20820       168  CHL1      C23            33.2685766105       -6.6208425704       -5.2174853497  MEMB      168             0.0000000000
     20821       168  CHL1      H23A           33.1706728201       -5.6961272473       -4.6063528192  MEMB      168             0.0000000000
     20822       168  CHL1      H23B           32.3574867984       -6.6934833211       -5.8405593926  MEMB      168             0.0000000000
     20823       168  CHL1      C24            33.3407868691       -7.8483554742       -4.2899202845  MEMB      168             0.0000000000
     20824       168  CHL1      H24A           33.5551281156       -8.7550639903       -4.8976404817  MEMB      168             0.0000000000
     20825       168  CHL1      H24B           34.1885676084       -7.7091074722       -3.5836637759  MEMB      168             0.0000000000
     20826       168  CHL1      C25            32.0475903345       -8.1033709522       -3.4823311708  MEMB      168             0.0000000000
     20827       168  CHL1      H25            31.7858391353       -7.1569439750       -2.9512239722  MEMB      168             0.0000000000
     20828       168  CHL1      C26            30.8681768697       -8.4905979200       -4.3925228739  MEMB      168             0.0000000000
     20829       168  CHL1      H26A           30.6275512072       -7.6725919837       -5.1024095262  MEMB      168             0.0000000000
     20830       168  CHL1      H26B           31.1128450632       -9.4060802499       -4.9720640429  MEMB      168             0.0000000000
     20831       168  CHL1      H26C           29.9611860892       -8.6911897957       -3.7841708741  MEMB      168             0.0000000000
     20832       168  CHL1      C27            32.2596534750       -9.1953619684       -2.4189207081  MEMB      168             0.0000000000
     20833       168  CHL1      H27A           31.3269936190       -9.3404101262       -1.8315969202  MEMB      168             0.0000000000
     20834       168  CHL1      H27B           32.5192334394      -10.1602175892       -2.9047525619  MEMB      168             0.0000000000
     20835       168  CHL1      H27C           33.0796667706       -8.9151752052       -1.7246618716  MEMB      168             0.0000000000
     20836       169  DOPE      N              33.4718247869        9.5207886933      -20.2504092786  MEMB      169             0.0000000000
     20837       169  DOPE      HN1            32.7102625180        9.8529600274      -20.8896789601  MEMB      169             0.0000000000
     20838       169  DOPE      HN2            34.1358924132       10.3185107388      -20.0981982710  MEMB      169             0.0000000000
     20839       169  DOPE      HN3            34.0427192043        8.7929276290      -20.7341151567  MEMB      169             0.0000000000
     20840       169  DOPE      C12            33.1010141386        8.8509694873      -18.9565818997  MEMB      169             0.0000000000
     20841       169  DOPE      H12A           32.2801782517        8.1313039730      -19.1916540120  MEMB      169             0.0000000000
     20842       169  DOPE      H12B           32.7916682077        9.6009164472      -18.2051251258  MEMB      169             0.0000000000
     20843       169  DOPE      C11            34.2542310617        8.0033799654      -18.4830275476  MEMB      169             0.0000000000
     20844       169  DOPE      H11A           33.8628842566        7.3409452266      -17.6692870857  MEMB      169             0.0000000000
     20845       169  DOPE      H11B           35.0903048372        8.6193419591      -18.0756646349  MEMB      169             0.0000000000
     20846       169  DOPE      P              35.5777352211        6.0217149974      -19.4366671522  MEMB      169             0.0000000000
     20847       169  DOPE      O13            36.9300057167        6.5812457225      -19.1834123928  MEMB      169             0.0000000000
     20848       169  DOPE      O14            35.3593089934        5.2239017966      -20.6456020249  MEMB      169             0.0000000000
     20849       169  DOPE      O11            34.9302001342        5.3663130783      -18.1778627822  MEMB      169             0.0000000000
     20850       169  DOPE      O12            34.6587252763        7.2680293986      -19.6298084622  MEMB      169             0.0000000000
     20851       169  DOPE      C1             35.5164216498        4.4118045610      -17.2974774762  MEMB      169             0.0000000000
     20852       169  DOPE      HA             36.6254117827        4.4240632217      -17.3778306307  MEMB      169             0.0000000000
     20853       169  DOPE      HB             35.1436520799        3.3970181988      -17.5621848101  MEMB      169             0.0000000000
     20854       169  DOPE      C2             35.0857007476        4.7474015673      -15.8393607008  MEMB      169             0.0000000000
     20855       169  DOPE      HS             33.9780852843        4.6181227469      -15.8065918259  MEMB      169             0.0000000000
     20856       169  DOPE      O21            35.4961158358        6.0922531208      -15.6089199598  MEMB      169             0.0000000000
     20857       169  DOPE      C21            34.6287816155        6.8781388133      -15.0229889086  MEMB      169             0.0000000000
     20858       169  DOPE      O22            33.4303702254        6.7155955433      -14.9074955884  MEMB      169             0.0000000000
     20859       169  DOPE      C22            35.4486468556        7.9986676874      -14.4204705794  MEMB      169             0.0000000000
     20860       169  DOPE      H2R            35.6901651377        8.7105661354      -15.2350877821  MEMB      169             0.0000000000
     20861       169  DOPE      H2S            36.3943893255        7.5172393403      -14.0914966812  MEMB      169             0.0000000000
     20862       169  DOPE      C3             35.7125149632        3.9151214550      -14.6698358303  MEMB      169             0.0000000000
     20863       169  DOPE      HX             36.8131804157        4.0371753996      -14.7691856753  MEMB      169             0.0000000000
     20864       169  DOPE      HY             35.4855754934        2.8288036300      -14.7313780025  MEMB      169             0.0000000000
     20865       169  DOPE      O31            35.4039892498        4.4643589638      -13.3716025161  MEMB      169             0.0000000000
     20866       169  DOPE      C31            34.1358269082        4.4344035908      -12.9705891097  MEMB      169             0.0000000000
     20867       169  DOPE      O32            33.2463971268        3.7727530208      -13.4635584791  MEMB      169             0.0000000000
     20868       169  DOPE      C32            34.0325458823        5.4267961246      -11.8031414872  MEMB      169             0.0000000000
     20869       169  DOPE      H2X            34.6179779622        4.9918748235      -10.9721488128  MEMB      169             0.0000000000
     20870       169  DOPE      H2Y            34.5862161127        6.3135012839      -12.1306750702  MEMB      169             0.0000000000
     20871       169  DOPE      C23            34.8678223687        8.7805443096      -13.2278612550  MEMB      169             0.0000000000
     20872       169  DOPE      H3R            34.6613462927        8.1773708453      -12.3275393049  MEMB      169             0.0000000000
     20873       169  DOPE      H3S            33.9075877586        9.2715144000      -13.4905537709  MEMB      169             0.0000000000
     20874       169  DOPE      C24            35.9385517632        9.7931043778      -12.8356149302  MEMB      169             0.0000000000
     20875       169  DOPE      H4R            35.5231026335       10.5332713917      -12.1224687541  MEMB      169             0.0000000000
     20876       169  DOPE      H4S            36.2095040186       10.3526761649      -13.7547271612  MEMB      169             0.0000000000
     20877       169  DOPE      C25            37.2180410869        9.1322917033      -12.2827310164  MEMB      169             0.0000000000
     20878       169  DOPE      H5R            37.9331589494        9.9124211370      -11.9800324629  MEMB      169             0.0000000000
     20879       169  DOPE      H5S            37.7571568108        8.5659842989      -13.0694521484  MEMB      169             0.0000000000
     20880       169  DOPE      C26            37.0118938319        8.2604877134      -11.0445839175  MEMB      169             0.0000000000
     20881       169  DOPE      H6R            38.0325122959        7.9864027095      -10.6951412604  MEMB      169             0.0000000000
     20882       169  DOPE      H6S            36.4896951149        7.3126394442      -11.2809537471  MEMB      169             0.0000000000
     20883       169  DOPE      C27            36.2728985900        9.0241971921       -9.9417407611  MEMB      169             0.0000000000
     20884       169  DOPE      H7R            35.4047899017        9.6024218711      -10.3171974238  MEMB      169             0.0000000000
     20885       169  DOPE      H7S            37.0021991543        9.7889819681       -9.5818633364  MEMB      169             0.0000000000
     20886       169  DOPE      C28            35.7303590946        8.1149703685       -8.8318422190  MEMB      169             0.0000000000
     20887       169  DOPE      H8R            36.3701261305        7.2104647450       -8.7526001678  MEMB      169             0.0000000000
     20888       169  DOPE      H8S            34.6934487460        7.7913880176       -9.0651331712  MEMB      169             0.0000000000
     20889       169  DOPE      C29            35.8441631663        8.8979009601       -7.5656783259  MEMB      169             0.0000000000
     20890       169  DOPE      H9R            36.7914990429        9.4380345558       -7.5252990505  MEMB      169             0.0000000000
     20891       169  DOPE      C210           34.9785423158        9.1247245635       -6.5804803179  MEMB      169             0.0000000000
     20892       169  DOPE      H10R           35.3285855047        9.6807721542       -5.7073126163  MEMB      169             0.0000000000
     20893       169  DOPE      C211           33.5836109996        8.6582776192       -6.4181418328  MEMB      169             0.0000000000
     20894       169  DOPE      H11R           33.2260650935        8.0892504419       -7.3071782048  MEMB      169             0.0000000000
     20895       169  DOPE      H11S           32.8801343597        9.5082675201       -6.2688687132  MEMB      169             0.0000000000
     20896       169  DOPE      C212           33.5497020568        7.7586865952       -5.1812720289  MEMB      169             0.0000000000
     20897       169  DOPE      H12R           34.0880199232        6.7964953058       -5.3288156289  MEMB      169             0.0000000000
     20898       169  DOPE      H12S           32.4717860580        7.5801001165       -5.1556375605  MEMB      169             0.0000000000
     20899       169  DOPE      C213           33.7173352113        8.3095002585       -3.7576201642  MEMB      169             0.0000000000
     20900       169  DOPE      H13R           33.2466414559        7.5527447676       -3.1111380029  MEMB      169             0.0000000000
     20901       169  DOPE      H13S           33.0731867009        9.1904913525       -3.6170000371  MEMB      169             0.0000000000
     20902       169  DOPE      C214           35.1553133422        8.4758609861       -3.2690387009  MEMB      169             0.0000000000
     20903       169  DOPE      H14R           35.5516379472        9.4704107803       -3.5115019775  MEMB      169             0.0000000000
     20904       169  DOPE      H14S           35.7732959529        7.7592612708       -3.8574096445  MEMB      169             0.0000000000
     20905       169  DOPE      C215           35.3981711464        8.2052949352       -1.7721913785  MEMB      169             0.0000000000
     20906       169  DOPE      H15R           34.8494125427        7.2926867665       -1.4651115398  MEMB      169             0.0000000000
     20907       169  DOPE      H15S           35.0051766367        8.9442248364       -1.0581547783  MEMB      169             0.0000000000
     20908       169  DOPE      C216           36.9053894805        8.0434459962       -1.5667654296  MEMB      169             0.0000000000
     20909       169  DOPE      H16R           37.3670484026        7.5794739507       -2.4656781215  MEMB      169             0.0000000000
     20910       169  DOPE      H16S           37.0780271658        7.3456626625       -0.7155242970  MEMB      169             0.0000000000
     20911       169  DOPE      C217           37.6306253435        9.3548698355       -1.2856474526  MEMB      169             0.0000000000
     20912       169  DOPE      H17R           36.9222699476       10.0669731978       -0.8071564621  MEMB      169             0.0000000000
     20913       169  DOPE      H17S           37.9669566788        9.8181621885       -2.2377388416  MEMB      169             0.0000000000
     20914       169  DOPE      C218           38.8041148719        9.0843260160       -0.3277871773  MEMB      169             0.0000000000
     20915       169  DOPE      H18R           39.8013136974        9.4303930545       -0.0459360780  MEMB      169             0.0000000000
     20916       169  DOPE      H18S           39.3411525125        8.3943021725       -1.0267644440  MEMB      169             0.0000000000
     20917       169  DOPE      H18T           38.9032896378       10.2096613519       -0.3330801355  MEMB      169             0.0000000000
     20918       169  DOPE      C33            32.6341073732        5.8043563754      -11.2469810644  MEMB      169             0.0000000000
     20919       169  DOPE      H3X            31.8248293756        5.4123241692      -11.9028783068  MEMB      169             0.0000000000
     20920       169  DOPE      H3Y            32.4971431897        6.9134986628      -11.2177430405  MEMB      169             0.0000000000
     20921       169  DOPE      C34            32.5511999657        5.2887123464       -9.7954489800  MEMB      169             0.0000000000
     20922       169  DOPE      H4X            32.7325028684        4.1950831365       -9.8218065016  MEMB      169             0.0000000000
     20923       169  DOPE      H4Y            33.3830072653        5.7456463497       -9.2118201675  MEMB      169             0.0000000000
     20924       169  DOPE      C35            31.2232663972        5.5880035189       -9.0887374904  MEMB      169             0.0000000000
     20925       169  DOPE      H5X            30.4219000567        5.1569819428       -9.7289511092  MEMB      169             0.0000000000
     20926       169  DOPE      H5Y            31.0891322857        6.6907481906       -9.0535596638  MEMB      169             0.0000000000
     20927       169  DOPE      C36            31.0266380251        4.9849564706       -7.6723365752  MEMB      169             0.0000000000
     20928       169  DOPE      H6X            31.4404583966        3.9646708299       -7.6306656276  MEMB      169             0.0000000000
     20929       169  DOPE      H6Y            29.9285918663        4.9123741916       -7.5143753030  MEMB      169             0.0000000000
     20930       169  DOPE      C37            31.6050239855        5.8266683969       -6.5227993741  MEMB      169             0.0000000000
     20931       169  DOPE      H7X            32.7015270869        5.7149980789       -6.5211415308  MEMB      169             0.0000000000
     20932       169  DOPE      H7Y            31.3644960668        6.8828871316       -6.8214135010  MEMB      169             0.0000000000
     20933       169  DOPE      C38            30.9754061418        5.6696136634       -5.0797669398  MEMB      169             0.0000000000
     20934       169  DOPE      H8X            29.9553962138        5.6725884183       -5.4457089987  MEMB      169             0.0000000000
     20935       169  DOPE      H8Y            31.0264268486        6.6109991767       -4.4973150505  MEMB      169             0.0000000000
     20936       169  DOPE      C39            30.9301358679        4.5310793769       -4.0820324213  MEMB      169             0.0000000000
     20937       169  DOPE      H9X            30.2057539157        3.7692437916       -4.3971870318  MEMB      169             0.0000000000
     20938       169  DOPE      C310           31.5273800184        4.2869854836       -2.8873579046  MEMB      169             0.0000000000
     20939       169  DOPE      H10X           31.2092451888        3.3587332528       -2.3953283389  MEMB      169             0.0000000000
     20940       169  DOPE      C311           32.5190071606        5.0086779540       -1.9930847500  MEMB      169             0.0000000000
     20941       169  DOPE      H11X           33.0539088680        5.8229370988       -2.5027803880  MEMB      169             0.0000000000
     20942       169  DOPE      H11Y           32.0532367108        5.4238243084       -1.0832826929  MEMB      169             0.0000000000
     20943       169  DOPE      C312           33.6213428147        4.0255255131       -1.5531790625  MEMB      169             0.0000000000
     20944       169  DOPE      H12X           33.2123492760        2.9882962235       -1.5462516823  MEMB      169             0.0000000000
     20945       169  DOPE      H12Y           34.0070805114        4.2233460820       -0.5296516229  MEMB      169             0.0000000000
     20946       169  DOPE      C313           34.7523985645        4.1227280755       -2.5810047967  MEMB      169             0.0000000000
     20947       169  DOPE      H13X           35.1676695251        3.1240894947       -2.7794178923  MEMB      169             0.0000000000
     20948       169  DOPE      H13Y           34.2355316205        4.4707623027       -3.5094104612  MEMB      169             0.0000000000
     20949       169  DOPE      C314           35.8539152376        5.1372088605       -2.2447479190  MEMB      169             0.0000000000
     20950       169  DOPE      H14X           35.8060918836        5.3939887063       -1.1645319131  MEMB      169             0.0000000000
     20951       169  DOPE      H14Y           35.5615948345        6.0217391160       -2.8328084295  MEMB      169             0.0000000000
     20952       169  DOPE      C315           37.3233504473        4.9199786437       -2.6577439690  MEMB      169             0.0000000000
     20953       169  DOPE      H15X           37.9820231233        5.4732617955       -1.9432614427  MEMB      169             0.0000000000
     20954       169  DOPE      H15Y           37.5023975846        5.3898431385       -3.6517215635  MEMB      169             0.0000000000
     20955       169  DOPE      C316           37.7703660470        3.4700958989       -2.7157790077  MEMB      169             0.0000000000
     20956       169  DOPE      H16X           38.8439067772        3.4610752449       -2.9785003724  MEMB      169             0.0000000000
     20957       169  DOPE      H16Y           37.2433535368        2.9594420502       -3.5500166408  MEMB      169             0.0000000000
     20958       169  DOPE      C317           37.5412466608        2.6867384990       -1.4172344946  MEMB      169             0.0000000000
     20959       169  DOPE      H17X           36.5135040123        2.2689487130       -1.4377391607  MEMB      169             0.0000000000
     20960       169  DOPE      H17Y           38.2239847080        1.8111296614       -1.4398182198  MEMB      169             0.0000000000
     20961       169  DOPE      C318           37.7119679730        3.4777054311       -0.1097856871  MEMB      169             0.0000000000
     20962       169  DOPE      H18X           37.7687835632        2.7827113496        0.7548842956  MEMB      169             0.0000000000
     20963       169  DOPE      H18Y           38.6337523766        4.0999467089       -0.1182778928  MEMB      169             0.0000000000
     20964       169  DOPE      H18Z           36.8549930709        4.1558064683        0.0573929974  MEMB      169             0.0000000000
     20965       170  DOPC      N             -24.1809440364      -30.7484239883      -20.9561261725  MEMB      170             0.0000000000
     20966       170  DOPC      C12           -24.3333137277      -31.5213269265      -19.6562313458  MEMB      170             0.0000000000
     20967       170  DOPC      H12A          -23.8027595940      -32.4557329449      -19.6750782826  MEMB      170             0.0000000000
     20968       170  DOPC      H12B          -25.3899887711      -31.7142213598      -19.5159744738  MEMB      170             0.0000000000
     20969       170  DOPC      C13           -22.9028745133      -29.9611322726      -20.8995140257  MEMB      170             0.0000000000
     20970       170  DOPC      H13A          -22.0297288441      -30.5766303034      -21.0011605087  MEMB      170             0.0000000000
     20971       170  DOPC      H13B          -22.8728066030      -29.1937525568      -21.6539319307  MEMB      170             0.0000000000
     20972       170  DOPC      H13C          -22.8326051081      -29.4372367273      -19.9321328107  MEMB      170             0.0000000000
     20973       170  DOPC      C14           -25.2997565593      -29.7413461160      -21.0158220472  MEMB      170             0.0000000000
     20974       170  DOPC      H14A          -26.2711866691      -30.2064976181      -21.0995474514  MEMB      170             0.0000000000
     20975       170  DOPC      H14B          -25.2925227103      -29.1511914448      -20.0864153603  MEMB      170             0.0000000000
     20976       170  DOPC      H14C          -25.1687732932      -29.0590547650      -21.8461235424  MEMB      170             0.0000000000
     20977       170  DOPC      C15           -24.2476543276      -31.5709672444      -22.1990238359  MEMB      170             0.0000000000
     20978       170  DOPC      H15A          -23.3419748258      -32.1456836188      -22.3442855441  MEMB      170             0.0000000000
     20979       170  DOPC      H15B          -24.3342512637      -30.9239453147      -23.0786749582  MEMB      170             0.0000000000
     20980       170  DOPC      H15C          -25.1095631617      -32.2290042775      -22.2306860019  MEMB      170             0.0000000000
     20981       170  DOPC      C11           -23.8889028111      -30.7750543150      -18.3799627628  MEMB      170             0.0000000000
     20982       170  DOPC      H11A          -24.2485636070      -31.3430906632      -17.4970614457  MEMB      170             0.0000000000
     20983       170  DOPC      H11B          -22.7748074957      -30.7352780443      -18.3096622347  MEMB      170             0.0000000000
     20984       170  DOPC      P             -23.8800817760      -28.3013785190      -17.5399298675  MEMB      170             0.0000000000
     20985       170  DOPC      O13           -24.6332763690      -27.1068765442      -17.9720604496  MEMB      170             0.0000000000
     20986       170  DOPC      O14           -22.4234802125      -28.2982957329      -17.7619108958  MEMB      170             0.0000000000
     20987       170  DOPC      O12           -24.4669919360      -29.4840306944      -18.3847006140  MEMB      170             0.0000000000
     20988       170  DOPC      O11           -24.2753735069      -28.7910612767      -16.0733344675  MEMB      170             0.0000000000
     20989       170  DOPC      C1            -25.6612482830      -29.0481727698      -15.7576238391  MEMB      170             0.0000000000
     20990       170  DOPC      HA            -25.9858152545      -30.0172670891      -16.2004306258  MEMB      170             0.0000000000
     20991       170  DOPC      HB            -26.3211025195      -28.2588738662      -16.1916508512  MEMB      170             0.0000000000
     20992       170  DOPC      C2            -26.0025601294      -29.0792732130      -14.2097535023  MEMB      170             0.0000000000
     20993       170  DOPC      HS            -27.1123722374      -28.9913578735      -14.1510690941  MEMB      170             0.0000000000
     20994       170  DOPC      O21           -25.4147186755      -28.0647188854      -13.3783223064  MEMB      170             0.0000000000
     20995       170  DOPC      C21           -24.8997427959      -26.9548055645      -13.8331996488  MEMB      170             0.0000000000
     20996       170  DOPC      O22           -24.9565311562      -26.4854422948      -14.9388860568  MEMB      170             0.0000000000
     20997       170  DOPC      C22           -24.2483811375      -26.2042550504      -12.6898505446  MEMB      170             0.0000000000
     20998       170  DOPC      H2R           -24.2529552187      -25.1297487982      -12.9685612602  MEMB      170             0.0000000000
     20999       170  DOPC      H2S           -23.1899872244      -26.5412558174      -12.6802342897  MEMB      170             0.0000000000
     21000       170  DOPC      C3            -25.6498302578      -30.4093210220      -13.4659370257  MEMB      170             0.0000000000
     21001       170  DOPC      HX            -26.0995487827      -31.3035404261      -13.9590268842  MEMB      170             0.0000000000
     21002       170  DOPC      HY            -26.1215804076      -30.3485135989      -12.4631977562  MEMB      170             0.0000000000
     21003       170  DOPC      O31           -24.2240656781      -30.5178993721      -13.2498203219  MEMB      170             0.0000000000
     21004       170  DOPC      C31           -23.6269140125      -30.9031393463      -14.3706752149  MEMB      170             0.0000000000
     21005       170  DOPC      O32           -24.1881788254      -31.5733044530      -15.2270460798  MEMB      170             0.0000000000
     21006       170  DOPC      C32           -22.2137250631      -30.3310619253      -14.3953303856  MEMB      170             0.0000000000
     21007       170  DOPC      H2X           -21.7465073018      -30.8437563665      -15.2607096738  MEMB      170             0.0000000000
     21008       170  DOPC      H2Y           -22.2723031280      -29.2563939170      -14.6633249921  MEMB      170             0.0000000000
     21009       170  DOPC      C23           -24.9075694487      -26.4318880040      -11.3077520500  MEMB      170             0.0000000000
     21010       170  DOPC      H3R           -25.8439578790      -27.0246452632      -11.3354621840  MEMB      170             0.0000000000
     21011       170  DOPC      H3S           -25.1276386515      -25.4319664640      -10.8719621481  MEMB      170             0.0000000000
     21012       170  DOPC      C24           -23.8543760620      -27.0560557045      -10.4191322513  MEMB      170             0.0000000000
     21013       170  DOPC      H4R           -23.1677099539      -26.2288841201      -10.4258402349  MEMB      170             0.0000000000
     21014       170  DOPC      H4S           -23.3437220050      -27.8982564870      -10.9055724770  MEMB      170             0.0000000000
     21015       170  DOPC      C25           -24.0658894352      -27.2198075053       -8.9286162904  MEMB      170             0.0000000000
     21016       170  DOPC      H5R           -24.5815485339      -26.3200104875       -8.5402708452  MEMB      170             0.0000000000
     21017       170  DOPC      H5S           -23.0782048205      -27.3080203704       -8.4215598505  MEMB      170             0.0000000000
     21018       170  DOPC      C26           -24.7967263613      -28.4951912533       -8.6336727966  MEMB      170             0.0000000000
     21019       170  DOPC      H6R           -25.7896434387      -28.2345647923       -9.0263693196  MEMB      170             0.0000000000
     21020       170  DOPC      H6S           -24.8559868237      -28.6576580803       -7.5383353015  MEMB      170             0.0000000000
     21021       170  DOPC      C27           -24.1615138121      -29.6961820656       -9.3522197296  MEMB      170             0.0000000000
     21022       170  DOPC      H7R           -23.0753320498      -29.5084464686       -9.2036121063  MEMB      170             0.0000000000
     21023       170  DOPC      H7S           -24.3425178482      -29.6684857801      -10.4489317285  MEMB      170             0.0000000000
     21024       170  DOPC      C28           -24.5401425295      -31.0873440532       -8.8182670301  MEMB      170             0.0000000000
     21025       170  DOPC      H8R           -25.0181149778      -31.6982331429       -9.6155871598  MEMB      170             0.0000000000
     21026       170  DOPC      H8S           -25.2836098906      -30.9850267499       -8.0033491224  MEMB      170             0.0000000000
     21027       170  DOPC      C29           -23.3083206117      -31.7316421452       -8.2693729141  MEMB      170             0.0000000000
     21028       170  DOPC      H9R           -22.7181288950      -32.3838284145       -8.9374732216  MEMB      170             0.0000000000
     21029       170  DOPC      C210          -22.8476867388      -31.4405879994       -7.0515659448  MEMB      170             0.0000000000
     21030       170  DOPC      H10R          -21.8761569683      -31.8780313603       -6.7838997075  MEMB      170             0.0000000000
     21031       170  DOPC      C211          -23.4181862681      -30.4754807574       -6.0209448666  MEMB      170             0.0000000000
     21032       170  DOPC      H11R          -23.3883955372      -29.4486345686       -6.4364715780  MEMB      170             0.0000000000
     21033       170  DOPC      H11S          -22.7074176653      -30.4520760091       -5.1746558203  MEMB      170             0.0000000000
     21034       170  DOPC      C212          -24.7821457750      -30.7160655503       -5.2969447408  MEMB      170             0.0000000000
     21035       170  DOPC      H12R          -25.2674602798      -31.6289451835       -5.6679910723  MEMB      170             0.0000000000
     21036       170  DOPC      H12S          -25.3969663107      -29.8460966610       -5.6242715431  MEMB      170             0.0000000000
     21037       170  DOPC      C213          -24.7727017095      -30.7572186831       -3.7292298319  MEMB      170             0.0000000000
     21038       170  DOPC      H13R          -25.5391161509      -30.0349740961       -3.3788712430  MEMB      170             0.0000000000
     21039       170  DOPC      H13S          -23.8001657080      -30.3560533372       -3.3812918531  MEMB      170             0.0000000000
     21040       170  DOPC      C214          -25.0431498079      -32.1141826855       -2.9881474257  MEMB      170             0.0000000000
     21041       170  DOPC      H14R          -24.0885295309      -32.6426586035       -2.8563665318  MEMB      170             0.0000000000
     21042       170  DOPC      H14S          -25.7265551513      -32.7615480216       -3.5740888773  MEMB      170             0.0000000000
     21043       170  DOPC      C215          -25.5978741619      -31.9698471158       -1.5482484354  MEMB      170             0.0000000000
     21044       170  DOPC      H15R          -26.5940498118      -31.5446556556       -1.6217064361  MEMB      170             0.0000000000
     21045       170  DOPC      H15S          -25.0930426323      -31.1153630779       -1.0780076356  MEMB      170             0.0000000000
     21046       170  DOPC      C216          -25.8515189442      -33.2224697850       -0.6097157401  MEMB      170             0.0000000000
     21047       170  DOPC      H16R          -26.4873338943      -33.9092124507       -1.1883571081  MEMB      170             0.0000000000
     21048       170  DOPC      H16S          -26.4898404951      -32.7908024968        0.1839075812  MEMB      170             0.0000000000
     21049       170  DOPC      C217          -24.8133780018      -34.1129026215        0.1642104104  MEMB      170             0.0000000000
     21050       170  DOPC      H17R          -24.0603264507      -33.5526449514        0.6812775628  MEMB      170             0.0000000000
     21051       170  DOPC      H17S          -24.2270254455      -34.8106190052       -0.4483524154  MEMB      170             0.0000000000
     21052       170  DOPC      C218          -25.2597349604      -34.8526695028        1.4113141112  MEMB      170             0.0000000000
     21053       170  DOPC      H18R          -24.5507314315      -35.6367757405        1.6421963141  MEMB      170             0.0000000000
     21054       170  DOPC      H18S          -26.2675008014      -35.3013072356        1.3708752497  MEMB      170             0.0000000000
     21055       170  DOPC      H18T          -25.0746231064      -34.2245522518        2.2916452505  MEMB      170             0.0000000000
     21056       170  DOPC      C33           -21.3795829429      -30.5304398279      -13.0869437055  MEMB      170             0.0000000000
     21057       170  DOPC      H3X           -20.3327810967      -30.7640915862      -13.3722698183  MEMB      170             0.0000000000
     21058       170  DOPC      H3Y           -21.7410011132      -31.4028396872      -12.5211943483  MEMB      170             0.0000000000
     21059       170  DOPC      C34           -21.3254840681      -29.3309309612      -12.1233295164  MEMB      170             0.0000000000
     21060       170  DOPC      H4X           -22.1889737999      -29.4052728655      -11.4367408262  MEMB      170             0.0000000000
     21061       170  DOPC      H4Y           -21.4422521907      -28.3944067265      -12.7167634158  MEMB      170             0.0000000000
     21062       170  DOPC      C35           -20.0288942508      -29.1978597211      -11.2984767779  MEMB      170             0.0000000000
     21063       170  DOPC      H5X           -19.7755135291      -28.1101544472      -11.2777093005  MEMB      170             0.0000000000
     21064       170  DOPC      H5Y           -19.1660064905      -29.7002877331      -11.7838357527  MEMB      170             0.0000000000
     21065       170  DOPC      C36           -20.1247394466      -29.6350634914       -9.8212447149  MEMB      170             0.0000000000
     21066       170  DOPC      H6X           -21.1427284391      -29.4500821636       -9.4319420818  MEMB      170             0.0000000000
     21067       170  DOPC      H6Y           -19.8990720918      -30.7183308325       -9.7293588993  MEMB      170             0.0000000000
     21068       170  DOPC      C37           -19.1715026972      -28.7791703821       -8.9798452277  MEMB      170             0.0000000000
     21069       170  DOPC      H7X           -18.2614103915      -28.6831491752       -9.5991359206  MEMB      170             0.0000000000
     21070       170  DOPC      H7Y           -19.6059102546      -27.7665752924       -8.8638335809  MEMB      170             0.0000000000
     21071       170  DOPC      C38           -18.7900169972      -29.2608336871       -7.5734317519  MEMB      170             0.0000000000
     21072       170  DOPC      H8X           -18.1367597627      -28.4755830321       -7.1344654287  MEMB      170             0.0000000000
     21073       170  DOPC      H8Y           -18.1688782206      -30.1801259932       -7.6434320379  MEMB      170             0.0000000000
     21074       170  DOPC      C39           -19.9749616970      -29.4906461076       -6.6832094897  MEMB      170             0.0000000000
     21075       170  DOPC      H9X           -20.3249106949      -30.5292316695       -6.6905022630  MEMB      170             0.0000000000
     21076       170  DOPC      C310          -20.6682142740      -28.5974855150       -5.9519564613  MEMB      170             0.0000000000
     21077       170  DOPC      H10X          -21.5164295807      -28.9711967014       -5.3875649147  MEMB      170             0.0000000000
     21078       170  DOPC      C311          -20.5045509791      -27.1117525625       -5.7835450763  MEMB      170             0.0000000000
     21079       170  DOPC      H11X          -21.4218686291      -26.6272918854       -6.1809000279  MEMB      170             0.0000000000
     21080       170  DOPC      H11Y          -19.6420031377      -26.7844154422       -6.3986028388  MEMB      170             0.0000000000
     21081       170  DOPC      C312          -20.3676063649      -26.4750707642       -4.3757172389  MEMB      170             0.0000000000
     21082       170  DOPC      H12X          -19.9285522228      -25.4574189043       -4.4787710237  MEMB      170             0.0000000000
     21083       170  DOPC      H12Y          -19.7049682694      -27.1041989246       -3.7540503253  MEMB      170             0.0000000000
     21084       170  DOPC      C313          -21.6612201215      -26.2437569777       -3.6077556469  MEMB      170             0.0000000000
     21085       170  DOPC      H13X          -21.4162011878      -25.8395455766       -2.5957621532  MEMB      170             0.0000000000
     21086       170  DOPC      H13Y          -22.2616246226      -25.4664640491       -4.1291939060  MEMB      170             0.0000000000
     21087       170  DOPC      C314          -22.3860497063      -27.5733393541       -3.4793937912  MEMB      170             0.0000000000
     21088       170  DOPC      H14X          -23.0365881885      -27.7322780522       -4.3610372082  MEMB      170             0.0000000000
     21089       170  DOPC      H14Y          -21.6108826678      -28.3752528319       -3.4943607366  MEMB      170             0.0000000000
     21090       170  DOPC      C315          -23.0730122655      -27.7800835783       -2.1513943485  MEMB      170             0.0000000000
     21091       170  DOPC      H15X          -23.9301729965      -28.4766948747       -2.2818131307  MEMB      170             0.0000000000
     21092       170  DOPC      H15Y          -23.4620548971      -26.8100134596       -1.7749048168  MEMB      170             0.0000000000
     21093       170  DOPC      C316          -22.0843253250      -28.3845888421       -1.1409250977  MEMB      170             0.0000000000
     21094       170  DOPC      H16X          -21.8478462595      -29.4190348811       -1.4687583623  MEMB      170             0.0000000000
     21095       170  DOPC      H16Y          -21.1432673473      -27.7979614794       -1.2250047746  MEMB      170             0.0000000000
     21096       170  DOPC      C317          -22.7110819851      -28.3015728656        0.2615337216  MEMB      170             0.0000000000
     21097       170  DOPC      H17X          -22.8224442858      -27.2125958187        0.4452647339  MEMB      170             0.0000000000
     21098       170  DOPC      H17Y          -23.7279154280      -28.7303216845        0.1467200623  MEMB      170             0.0000000000
     21099       170  DOPC      C318          -22.1208171886      -28.8938354251        1.5620829163  MEMB      170             0.0000000000
     21100       170  DOPC      H18X          -22.5378131008      -28.3787928375        2.4566556609  MEMB      170             0.0000000000
     21101       170  DOPC      H18Y          -22.3287015949      -29.9390459287        1.7686123687  MEMB      170             0.0000000000
     21102       170  DOPC      H18Z          -21.0363580103      -28.8440134646        1.5600078237  MEMB      170             0.0000000000
     21103       171  DOPC      N              -1.4804950800      -35.8354828857      -19.7388568695  MEMB      171             0.0000000000
     21104       171  DOPC      C12            -2.0312803255      -37.0495447669      -19.0023617647  MEMB      171             0.0000000000
     21105       171  DOPC      H12A           -1.2274213905      -37.7592667514      -18.8659729398  MEMB      171             0.0000000000
     21106       171  DOPC      H12B           -2.7526466742      -37.5561509018      -19.6609018991  MEMB      171             0.0000000000
     21107       171  DOPC      C13            -0.2118077232      -36.2005361551      -20.4380451045  MEMB      171             0.0000000000
     21108       171  DOPC      H13A           -0.2746862860      -37.1430814130      -20.9761797265  MEMB      171             0.0000000000
     21109       171  DOPC      H13B            0.0895146815      -35.4301359395      -21.1496999517  MEMB      171             0.0000000000
     21110       171  DOPC      H13C            0.6021896015      -36.3015084319      -19.7328444351  MEMB      171             0.0000000000
     21111       171  DOPC      C14            -1.2147919839      -34.6647815462      -18.8533916145  MEMB      171             0.0000000000
     21112       171  DOPC      H14A           -2.1045798088      -34.4373108525      -18.2671757976  MEMB      171             0.0000000000
     21113       171  DOPC      H14B           -0.3646762631      -34.8434265853      -18.2189738056  MEMB      171             0.0000000000
     21114       171  DOPC      H14C           -0.9863503988      -33.7940223297      -19.4665173340  MEMB      171             0.0000000000
     21115       171  DOPC      C15            -2.4910399109      -35.4181441875      -20.7483737754  MEMB      171             0.0000000000
     21116       171  DOPC      H15A           -2.6127590441      -36.2280057251      -21.4621764746  MEMB      171             0.0000000000
     21117       171  DOPC      H15B           -2.2283011404      -34.5031126300      -21.2543623865  MEMB      171             0.0000000000
     21118       171  DOPC      H15C           -3.4626182677      -35.3058962191      -20.2698933357  MEMB      171             0.0000000000
     21119       171  DOPC      C11            -2.7797842897      -36.8098407128      -17.6656021029  MEMB      171             0.0000000000
     21120       171  DOPC      H11A           -2.9931370339      -37.7900938782      -17.1768024104  MEMB      171             0.0000000000
     21121       171  DOPC      H11B           -2.1219542816      -36.2504469931      -16.9657625438  MEMB      171             0.0000000000
     21122       171  DOPC      P              -5.2722070602      -36.8143009787      -18.4721213619  MEMB      171             0.0000000000
     21123       171  DOPC      O13            -4.8253695387      -38.0379706275      -19.1436601288  MEMB      171             0.0000000000
     21124       171  DOPC      O14            -6.0893822262      -35.8386173302      -19.2357218729  MEMB      171             0.0000000000
     21125       171  DOPC      O12            -3.9841782421      -36.0772711290      -17.8716439599  MEMB      171             0.0000000000
     21126       171  DOPC      O11            -6.0774342410      -37.1500870047      -17.1531946787  MEMB      171             0.0000000000
     21127       171  DOPC      C1             -6.7042690984      -36.0299541503      -16.5093073801  MEMB      171             0.0000000000
     21128       171  DOPC      HA             -7.7372551437      -35.9034602857      -16.8993206479  MEMB      171             0.0000000000
     21129       171  DOPC      HB             -6.1754670815      -35.0617137531      -16.7052556100  MEMB      171             0.0000000000
     21130       171  DOPC      C2             -6.7462444890      -36.2109841379      -14.9732263065  MEMB      171             0.0000000000
     21131       171  DOPC      HS             -7.1073079354      -35.2565778311      -14.5194926609  MEMB      171             0.0000000000
     21132       171  DOPC      O21            -5.4428689861      -36.5808218613      -14.4409712027  MEMB      171             0.0000000000
     21133       171  DOPC      C21            -4.6139058532      -35.5550542603      -14.4645373267  MEMB      171             0.0000000000
     21134       171  DOPC      O22            -4.9150613639      -34.4275097547      -14.8028222569  MEMB      171             0.0000000000
     21135       171  DOPC      C22            -3.2132025199      -35.8955739537      -13.9717042904  MEMB      171             0.0000000000
     21136       171  DOPC      H2R            -2.6390895301      -36.2682578046      -14.8410334426  MEMB      171             0.0000000000
     21137       171  DOPC      H2S            -3.2612336567      -36.6743429531      -13.1885523893  MEMB      171             0.0000000000
     21138       171  DOPC      C3             -7.7902535142      -37.2680247881      -14.5576563609  MEMB      171             0.0000000000
     21139       171  DOPC      HX             -7.6004495174      -38.2129648526      -15.1105963771  MEMB      171             0.0000000000
     21140       171  DOPC      HY             -8.8106114710      -36.9180500947      -14.8442272567  MEMB      171             0.0000000000
     21141       171  DOPC      O31            -7.6234905858      -37.4987681668      -13.1549576258  MEMB      171             0.0000000000
     21142       171  DOPC      C31            -8.5334366516      -37.0581505989      -12.3244016104  MEMB      171             0.0000000000
     21143       171  DOPC      O32            -9.6182954017      -36.5934772429      -12.6223215340  MEMB      171             0.0000000000
     21144       171  DOPC      C32            -8.0571672174      -37.3307058344      -10.8973074674  MEMB      171             0.0000000000
     21145       171  DOPC      H2X            -6.9642134604      -37.5217812558      -10.8955877508  MEMB      171             0.0000000000
     21146       171  DOPC      H2Y            -8.2544323719      -36.4209904931      -10.2935588333  MEMB      171             0.0000000000
     21147       171  DOPC      C23            -2.5404912932      -34.6140237124      -13.4280869228  MEMB      171             0.0000000000
     21148       171  DOPC      H3R            -2.7346414900      -33.7504577748      -14.1056878421  MEMB      171             0.0000000000
     21149       171  DOPC      H3S            -1.4363108232      -34.7343051533      -13.3886017390  MEMB      171             0.0000000000
     21150       171  DOPC      C24            -3.0469565241      -34.2645564497      -12.0306018927  MEMB      171             0.0000000000
     21151       171  DOPC      H4R            -4.1493991456      -34.3905455990      -11.9410470929  MEMB      171             0.0000000000
     21152       171  DOPC      H4S            -2.8461443353      -33.1910002990      -11.8438382152  MEMB      171             0.0000000000
     21153       171  DOPC      C25            -2.3126856843      -34.9998606004      -10.9100081698  MEMB      171             0.0000000000
     21154       171  DOPC      H5R            -1.2779766390      -35.2332682604      -11.2437856577  MEMB      171             0.0000000000
     21155       171  DOPC      H5S            -2.8258921061      -35.9593135047      -10.6806214722  MEMB      171             0.0000000000
     21156       171  DOPC      C26            -2.2155529247      -34.1107894935       -9.6670416969  MEMB      171             0.0000000000
     21157       171  DOPC      H6R            -1.5859619212      -33.2239402486       -9.9177223448  MEMB      171             0.0000000000
     21158       171  DOPC      H6S            -1.6817765424      -34.6452243599       -8.8566766488  MEMB      171             0.0000000000
     21159       171  DOPC      C27            -3.5843941964      -33.6002640268       -9.1851472954  MEMB      171             0.0000000000
     21160       171  DOPC      H7R            -4.1385128747      -33.1438359144      -10.0329866708  MEMB      171             0.0000000000
     21161       171  DOPC      H7S            -3.4140174908      -32.7950697454       -8.4351248633  MEMB      171             0.0000000000
     21162       171  DOPC      C28            -4.5116217048      -34.6637342896       -8.5855693573  MEMB      171             0.0000000000
     21163       171  DOPC      H8R            -4.8461136053      -35.3695793020       -9.3777652442  MEMB      171             0.0000000000
     21164       171  DOPC      H8S            -5.4228633172      -34.1384894107       -8.2156765583  MEMB      171             0.0000000000
     21165       171  DOPC      C29            -3.7868839313      -35.3821141217       -7.4789097709  MEMB      171             0.0000000000
     21166       171  DOPC      H9R            -3.2049508679      -36.2601320530       -7.8010559167  MEMB      171             0.0000000000
     21167       171  DOPC      C210           -3.7832592587      -35.0244049744       -6.1844997679  MEMB      171             0.0000000000
     21168       171  DOPC      H10R           -3.2107642649      -35.6279423249       -5.4659234320  MEMB      171             0.0000000000
     21169       171  DOPC      C211           -4.5069194604      -33.8413493526       -5.5925311872  MEMB      171             0.0000000000
     21170       171  DOPC      H11R           -4.5175704816      -32.9769767259       -6.2966962283  MEMB      171             0.0000000000
     21171       171  DOPC      H11S           -3.9935905179      -33.4966994934       -4.6676493727  MEMB      171             0.0000000000
     21172       171  DOPC      C212           -5.9647577090      -34.2082430025       -5.2563159318  MEMB      171             0.0000000000
     21173       171  DOPC      H12R           -6.5026510179      -34.4763343938       -6.1939765380  MEMB      171             0.0000000000
     21174       171  DOPC      H12S           -6.4709774375      -33.3158362104       -4.8234545428  MEMB      171             0.0000000000
     21175       171  DOPC      C213           -6.0910601836      -35.3785359844       -4.2698392394  MEMB      171             0.0000000000
     21176       171  DOPC      H13R           -5.6055279323      -35.0995476623       -3.3120383515  MEMB      171             0.0000000000
     21177       171  DOPC      H13S           -5.5578802160      -36.2663519378       -4.6748077383  MEMB      171             0.0000000000
     21178       171  DOPC      C214           -7.5474072769      -35.7709653599       -4.0028979229  MEMB      171             0.0000000000
     21179       171  DOPC      H14R           -8.0309683740      -36.0549755665       -4.9654652886  MEMB      171             0.0000000000
     21180       171  DOPC      H14S           -8.0877826809      -34.8838141906       -3.6020865261  MEMB      171             0.0000000000
     21181       171  DOPC      C215           -7.6832323138      -36.9427446214       -3.0181487363  MEMB      171             0.0000000000
     21182       171  DOPC      H15R           -8.7682595325      -37.0448638581       -2.7977711324  MEMB      171             0.0000000000
     21183       171  DOPC      H15S           -7.1496062305      -36.7099913738       -2.0716949457  MEMB      171             0.0000000000
     21184       171  DOPC      C216           -7.2085584053      -38.2850729260       -3.6023629264  MEMB      171             0.0000000000
     21185       171  DOPC      H16R           -6.1598644850      -38.2208282797       -3.9629803036  MEMB      171             0.0000000000
     21186       171  DOPC      H16S           -7.8655647912      -38.4629722867       -4.4769694750  MEMB      171             0.0000000000
     21187       171  DOPC      C217           -7.3659878976      -39.4932494416       -2.6672437046  MEMB      171             0.0000000000
     21188       171  DOPC      H17R           -8.0435894992      -39.2025187370       -1.8446266645  MEMB      171             0.0000000000
     21189       171  DOPC      H17S           -6.3957602777      -39.7424278138       -2.1890226289  MEMB      171             0.0000000000
     21190       171  DOPC      C218           -7.9541200775      -40.7475484863       -3.3244919098  MEMB      171             0.0000000000
     21191       171  DOPC      H18R           -7.1517288824      -41.3805742997       -3.7516854662  MEMB      171             0.0000000000
     21192       171  DOPC      H18S           -8.6910555877      -40.5028410925       -4.1190654336  MEMB      171             0.0000000000
     21193       171  DOPC      H18T           -8.4730860908      -41.3649865533       -2.5640185814  MEMB      171             0.0000000000
     21194       171  DOPC      C33            -8.8487034133      -38.5351959788      -10.3578212700  MEMB      171             0.0000000000
     21195       171  DOPC      H3X            -8.5140169194      -39.4730660744      -10.8569113381  MEMB      171             0.0000000000
     21196       171  DOPC      H3Y            -9.9110308834      -38.3763058034      -10.6275941979  MEMB      171             0.0000000000
     21197       171  DOPC      C34            -8.8191169121      -38.7133726020       -8.8433669850  MEMB      171             0.0000000000
     21198       171  DOPC      H4X            -9.7030541074      -39.3259661687       -8.5459352362  MEMB      171             0.0000000000
     21199       171  DOPC      H4Y            -8.8963861550      -37.7314917292       -8.3251810447  MEMB      171             0.0000000000
     21200       171  DOPC      C35            -7.5686957794      -39.4515291371       -8.3927049859  MEMB      171             0.0000000000
     21201       171  DOPC      H5X            -6.6781618686      -38.8597376580       -8.6995509283  MEMB      171             0.0000000000
     21202       171  DOPC      H5Y            -7.5141661542      -40.4475379715       -8.8874800694  MEMB      171             0.0000000000
     21203       171  DOPC      C36            -7.5433033672      -39.6421284338       -6.8825274448  MEMB      171             0.0000000000
     21204       171  DOPC      H6X            -7.4567528114      -38.6351425874       -6.4225289050  MEMB      171             0.0000000000
     21205       171  DOPC      H6Y            -8.5055879707      -40.0960359119       -6.5490173286  MEMB      171             0.0000000000
     21206       171  DOPC      C37            -6.3846950439      -40.5308433439       -6.4271042311  MEMB      171             0.0000000000
     21207       171  DOPC      H7X            -6.3487680510      -40.5954388783       -5.3307759631  MEMB      171             0.0000000000
     21208       171  DOPC      H7Y            -6.5703541545      -41.5556072807       -6.8319357693  MEMB      171             0.0000000000
     21209       171  DOPC      C38            -4.9830728875      -40.0815842178       -6.8710233408  MEMB      171             0.0000000000
     21210       171  DOPC      H8X            -5.0270228775      -39.8413384888       -7.9319959203  MEMB      171             0.0000000000
     21211       171  DOPC      H8Y            -4.3335988995      -40.9809100889       -6.7629074288  MEMB      171             0.0000000000
     21212       171  DOPC      C39            -4.3507755112      -38.8529564747       -6.3068741170  MEMB      171             0.0000000000
     21213       171  DOPC      H9X            -4.9587750896      -37.9357043060       -6.3665883690  MEMB      171             0.0000000000
     21214       171  DOPC      C310           -3.1610464686      -38.8421320977       -5.6918003421  MEMB      171             0.0000000000
     21215       171  DOPC      H10X           -2.8252341585      -37.9053725556       -5.2211374868  MEMB      171             0.0000000000
     21216       171  DOPC      C311           -2.2874289027      -40.0616557799       -5.4564643144  MEMB      171             0.0000000000
     21217       171  DOPC      H11X           -1.2757954082      -39.7232917553       -5.1363861577  MEMB      171             0.0000000000
     21218       171  DOPC      H11Y           -2.1583406989      -40.6899421263       -6.3634623663  MEMB      171             0.0000000000
     21219       171  DOPC      C312           -2.8792851236      -40.9285964112       -4.3159263808  MEMB      171             0.0000000000
     21220       171  DOPC      H12X           -2.1404427398      -41.6492033657       -3.9187064985  MEMB      171             0.0000000000
     21221       171  DOPC      H12Y           -3.7624819002      -41.5128796405       -4.6541993089  MEMB      171             0.0000000000
     21222       171  DOPC      C313           -3.3076867278      -39.9852760033       -3.2148152024  MEMB      171             0.0000000000
     21223       171  DOPC      H13X           -2.5059777953      -39.2116559892       -3.1106263122  MEMB      171             0.0000000000
     21224       171  DOPC      H13Y           -4.2476633875      -39.4796765996       -3.5459307751  MEMB      171             0.0000000000
     21225       171  DOPC      C314           -3.6048215222      -40.4840408154       -1.8262916964  MEMB      171             0.0000000000
     21226       171  DOPC      H14X           -4.4947864741      -41.1494984346       -1.7973881652  MEMB      171             0.0000000000
     21227       171  DOPC      H14Y           -2.7425036808      -40.9978516311       -1.3481660274  MEMB      171             0.0000000000
     21228       171  DOPC      C315           -3.8663476067      -39.1478683883       -1.1560294466  MEMB      171             0.0000000000
     21229       171  DOPC      H15X           -4.5422011039      -38.5169142690       -1.7840925088  MEMB      171             0.0000000000
     21230       171  DOPC      H15Y           -2.8995661972      -38.5999273941       -1.0948737271  MEMB      171             0.0000000000
     21231       171  DOPC      C316           -4.4878088127      -39.2395670372        0.1957745240  MEMB      171             0.0000000000
     21232       171  DOPC      H16X           -5.5595720621      -39.5153566838        0.0816221485  MEMB      171             0.0000000000
     21233       171  DOPC      H16Y           -3.9901947567      -40.0311506240        0.7955592769  MEMB      171             0.0000000000
     21234       171  DOPC      C317           -4.3462847240      -37.8741872978        0.8465910850  MEMB      171             0.0000000000
     21235       171  DOPC      H17X           -4.3887654218      -38.0255792590        1.9354657200  MEMB      171             0.0000000000
     21236       171  DOPC      H17Y           -3.3375069323      -37.4471749228        0.6466936360  MEMB      171             0.0000000000
     21237       171  DOPC      C318           -5.4452822711      -36.9100564748        0.4044606805  MEMB      171             0.0000000000
     21238       171  DOPC      H18X           -6.4201472295      -37.4431581661        0.3712724300  MEMB      171             0.0000000000
     21239       171  DOPC      H18Y           -5.5349538633      -36.0601250686        1.1126565824  MEMB      171             0.0000000000
     21240       171  DOPC      H18Z           -5.2339999543      -36.5218073908       -0.6144358542  MEMB      171             0.0000000000
     21241       172  DOPE      N              22.8224973440       26.9855056771      -21.8975810919  MEMB      172             0.0000000000
     21242       172  DOPE      HN1            23.2281701567       26.0882600242      -22.2267509008  MEMB      172             0.0000000000
     21243       172  DOPE      HN2            22.3674844714       26.8436455979      -20.9601721397  MEMB      172             0.0000000000
     21244       172  DOPE      HN3            22.0688765763       27.3192450224      -22.5604905101  MEMB      172             0.0000000000
     21245       172  DOPE      C12            23.8673918064       28.0458829337      -21.6616609823  MEMB      172             0.0000000000
     21246       172  DOPE      H12A           23.4250024032       29.0156032603      -21.9773019634  MEMB      172             0.0000000000
     21247       172  DOPE      H12B           24.7628472733       27.8127778315      -22.2650206240  MEMB      172             0.0000000000
     21248       172  DOPE      C11            24.1897207248       28.1299946741      -20.1699980206  MEMB      172             0.0000000000
     21249       172  DOPE      H11A           24.7618111336       29.0698291873      -19.9742709590  MEMB      172             0.0000000000
     21250       172  DOPE      H11B           24.7892715139       27.2521988335      -19.8321571166  MEMB      172             0.0000000000
     21251       172  DOPE      P              22.7459234480       28.5366586033      -17.9890473802  MEMB      172             0.0000000000
     21252       172  DOPE      O13            22.5731700286       27.2428592583      -17.2986430752  MEMB      172             0.0000000000
     21253       172  DOPE      O14            21.6438627286       29.5134915620      -17.9390890080  MEMB      172             0.0000000000
     21254       172  DOPE      O11            24.1510086912       29.1713756050      -17.5708087851  MEMB      172             0.0000000000
     21255       172  DOPE      O12            22.9495024160       28.1425189040      -19.5058173507  MEMB      172             0.0000000000
     21256       172  DOPE      C1             24.1451511508       30.1952421467      -16.5672164213  MEMB      172             0.0000000000
     21257       172  DOPE      HA             23.3856724838       30.9813309457      -16.7774814665  MEMB      172             0.0000000000
     21258       172  DOPE      HB             25.1259038496       30.7093062754      -16.5993595997  MEMB      172             0.0000000000
     21259       172  DOPE      C2             23.9330091850       29.5914588311      -15.1490837311  MEMB      172             0.0000000000
     21260       172  DOPE      HS             24.5423447410       28.6658431418      -15.1406764398  MEMB      172             0.0000000000
     21261       172  DOPE      O21            22.5474337735       29.3242301900      -14.9623489445  MEMB      172             0.0000000000
     21262       172  DOPE      C21            22.2251747529       28.1650525526      -14.4549714906  MEMB      172             0.0000000000
     21263       172  DOPE      O22            22.9659428033       27.2587536697      -14.1096234620  MEMB      172             0.0000000000
     21264       172  DOPE      C22            20.7690223280       28.2969956049      -14.0437610866  MEMB      172             0.0000000000
     21265       172  DOPE      H2R            20.3024553279       27.2935181433      -14.0973949426  MEMB      172             0.0000000000
     21266       172  DOPE      H2S            20.2397314559       28.9738541603      -14.7492656201  MEMB      172             0.0000000000
     21267       172  DOPE      C3             24.4425730018       30.4822476454      -13.9781592401  MEMB      172             0.0000000000
     21268       172  DOPE      HX             23.8529705153       31.3897850571      -13.7953346858  MEMB      172             0.0000000000
     21269       172  DOPE      HY             25.4097016167       30.8521768263      -14.3466888597  MEMB      172             0.0000000000
     21270       172  DOPE      O31            24.6133964357       29.7161027649      -12.7661031225  MEMB      172             0.0000000000
     21271       172  DOPE      C31            23.9819497101       30.1359109212      -11.6881861647  MEMB      172             0.0000000000
     21272       172  DOPE      O32            23.3883513870       31.1919781827      -11.5873902752  MEMB      172             0.0000000000
     21273       172  DOPE      C32            24.0541686189       29.0382324375      -10.6098024235  MEMB      172             0.0000000000
     21274       172  DOPE      H2X            23.1383316407       28.4230120162      -10.6364336615  MEMB      172             0.0000000000
     21275       172  DOPE      H2Y            24.9141786401       28.3849140955      -10.8690407166  MEMB      172             0.0000000000
     21276       172  DOPE      C23            20.7954380031       28.8776440955      -12.6151074061  MEMB      172             0.0000000000
     21277       172  DOPE      H3R            20.4969140226       29.9446188105      -12.6101890927  MEMB      172             0.0000000000
     21278       172  DOPE      H3S            21.8222952366       28.8479875485      -12.1981161576  MEMB      172             0.0000000000
     21279       172  DOPE      C24            19.9793742977       28.0567232053      -11.6453287091  MEMB      172             0.0000000000
     21280       172  DOPE      H4R            20.0855047835       26.9792151073      -11.9023311399  MEMB      172             0.0000000000
     21281       172  DOPE      H4S            18.9107285190       28.3401091274      -11.7656156165  MEMB      172             0.0000000000
     21282       172  DOPE      C25            20.3867841358       28.2142768600      -10.1780260642  MEMB      172             0.0000000000
     21283       172  DOPE      H5R            20.7938968643       29.2243581287       -9.9659252812  MEMB      172             0.0000000000
     21284       172  DOPE      H5S            21.1724545230       27.4714374698       -9.9153262445  MEMB      172             0.0000000000
     21285       172  DOPE      C26            19.1446052815       27.9746380520       -9.3452812792  MEMB      172             0.0000000000
     21286       172  DOPE      H6R            18.3569800984       28.6395980683       -9.7494435631  MEMB      172             0.0000000000
     21287       172  DOPE      H6S            19.2858391171       28.2188775669       -8.2714651582  MEMB      172             0.0000000000
     21288       172  DOPE      C27            18.6769766776       26.5416288637       -9.4915531029  MEMB      172             0.0000000000
     21289       172  DOPE      H7R            18.6725404622       26.2078804194      -10.5551259604  MEMB      172             0.0000000000
     21290       172  DOPE      H7S            17.6394149052       26.4240284673       -9.1439560370  MEMB      172             0.0000000000
     21291       172  DOPE      C28            19.5642906888       25.5898942551       -8.7095217231  MEMB      172             0.0000000000
     21292       172  DOPE      H8R            20.6162749632       25.6242587532       -9.0823885504  MEMB      172             0.0000000000
     21293       172  DOPE      H8S            19.0744143697       24.6512773807       -9.0059763053  MEMB      172             0.0000000000
     21294       172  DOPE      C29            19.4731240169       25.5851667128       -7.2198698116  MEMB      172             0.0000000000
     21295       172  DOPE      H9R            18.7184921777       24.8831347983       -6.8394715778  MEMB      172             0.0000000000
     21296       172  DOPE      C210           20.2896353371       26.1694808433       -6.3378282437  MEMB      172             0.0000000000
     21297       172  DOPE      H10R           19.9807832208       26.1387943729       -5.2845738956  MEMB      172             0.0000000000
     21298       172  DOPE      C211           21.5237478088       26.9908377285       -6.6073165295  MEMB      172             0.0000000000
     21299       172  DOPE      H11R           21.3161806152       28.0788789957       -6.5107124008  MEMB      172             0.0000000000
     21300       172  DOPE      H11S           21.9021727826       26.8224703448       -7.6405507003  MEMB      172             0.0000000000
     21301       172  DOPE      C212           22.6201194445       26.5731163369       -5.6095263343  MEMB      172             0.0000000000
     21302       172  DOPE      H12R           23.5995433733       26.9980412267       -5.9246644199  MEMB      172             0.0000000000
     21303       172  DOPE      H12S           22.7291327536       25.4648836115       -5.6555161803  MEMB      172             0.0000000000
     21304       172  DOPE      C213           22.3842954684       26.9917836606       -4.1443905685  MEMB      172             0.0000000000
     21305       172  DOPE      H13R           21.3028448292       26.9825827071       -3.8855245544  MEMB      172             0.0000000000
     21306       172  DOPE      H13S           22.7447259046       28.0362795271       -4.0236920021  MEMB      172             0.0000000000
     21307       172  DOPE      C214           23.1208155785       26.0278842856       -3.1980658122  MEMB      172             0.0000000000
     21308       172  DOPE      H14R           24.1472585735       25.8701891063       -3.5938710137  MEMB      172             0.0000000000
     21309       172  DOPE      H14S           22.6004265507       25.0593297628       -3.2546432482  MEMB      172             0.0000000000
     21310       172  DOPE      C215           23.2111706591       26.4352524515       -1.7238392018  MEMB      172             0.0000000000
     21311       172  DOPE      H15R           22.2099914570       26.6361265450       -1.2862513790  MEMB      172             0.0000000000
     21312       172  DOPE      H15S           23.7933861385       27.3828658996       -1.6722595250  MEMB      172             0.0000000000
     21313       172  DOPE      C216           23.8940162066       25.3932568334       -0.8230185621  MEMB      172             0.0000000000
     21314       172  DOPE      H16R           24.6224914308       24.7725408416       -1.3889103348  MEMB      172             0.0000000000
     21315       172  DOPE      H16S           23.1115759329       24.6997465621       -0.4412456193  MEMB      172             0.0000000000
     21316       172  DOPE      C217           24.5373704360       26.1029522982        0.3775275302  MEMB      172             0.0000000000
     21317       172  DOPE      H17R           23.7730725794       26.0893680754        1.1843467466  MEMB      172             0.0000000000
     21318       172  DOPE      H17S           24.7114275822       27.1712236497        0.1114182852  MEMB      172             0.0000000000
     21319       172  DOPE      C218           25.8550715035       25.5430414757        0.9161431180  MEMB      172             0.0000000000
     21320       172  DOPE      H18R           25.8341245995       24.4338407922        0.9456732358  MEMB      172             0.0000000000
     21321       172  DOPE      H18S           26.0302307798       25.9279676897        1.9441624860  MEMB      172             0.0000000000
     21322       172  DOPE      H18T           26.7140459690       25.8808533480        0.2982215818  MEMB      172             0.0000000000
     21323       172  DOPE      C33            24.2772367935       29.5751951080       -9.1830384611  MEMB      172             0.0000000000
     21324       172  DOPE      H3X            24.9494215026       30.4510987471       -9.2530129016  MEMB      172             0.0000000000
     21325       172  DOPE      H3Y            24.7833401778       28.7914724361       -8.5706173885  MEMB      172             0.0000000000
     21326       172  DOPE      C34            23.0370914971       30.0418581196       -8.4097357164  MEMB      172             0.0000000000
     21327       172  DOPE      H4X            22.7226224963       31.0144846388       -8.8515971168  MEMB      172             0.0000000000
     21328       172  DOPE      H4Y            22.2019291236       29.3221254785       -8.4814582822  MEMB      172             0.0000000000
     21329       172  DOPE      C35            23.3742223905       30.2437778024       -6.9302535411  MEMB      172             0.0000000000
     21330       172  DOPE      H5X            24.3552566163       30.7305519671       -6.9183669662  MEMB      172             0.0000000000
     21331       172  DOPE      H5Y            23.4358548132       29.2990925945       -6.3553665620  MEMB      172             0.0000000000
     21332       172  DOPE      C36            22.5802990917       31.2864349238       -6.1885562545  MEMB      172             0.0000000000
     21333       172  DOPE      H6X            22.6235658583       32.2323190945       -6.7500748134  MEMB      172             0.0000000000
     21334       172  DOPE      H6Y            23.0709770322       31.4900883950       -5.2069211019  MEMB      172             0.0000000000
     21335       172  DOPE      C37            21.1271023721       30.9799709299       -5.9453252345  MEMB      172             0.0000000000
     21336       172  DOPE      H7X            20.5578727536       30.8000567325       -6.8710935940  MEMB      172             0.0000000000
     21337       172  DOPE      H7Y            21.0187744207       30.0253776887       -5.3999990080  MEMB      172             0.0000000000
     21338       172  DOPE      C38            20.6428974408       32.2461550646       -5.2402956030  MEMB      172             0.0000000000
     21339       172  DOPE      H8X            20.9845048181       33.1313745387       -5.8153521950  MEMB      172             0.0000000000
     21340       172  DOPE      H8Y            21.1914421966       32.3497899573       -4.2838298679  MEMB      172             0.0000000000
     21341       172  DOPE      C39            19.1605876092       32.2872310591       -5.1023475911  MEMB      172             0.0000000000
     21342       172  DOPE      H9X            18.5997851207       32.2327934659       -6.0458232772  MEMB      172             0.0000000000
     21343       172  DOPE      C310           18.5247867616       32.4156552252       -3.9367831245  MEMB      172             0.0000000000
     21344       172  DOPE      H10X           17.4240116846       32.4062444324       -3.9101692193  MEMB      172             0.0000000000
     21345       172  DOPE      C311           19.2202213703       32.5387962417       -2.6127663031  MEMB      172             0.0000000000
     21346       172  DOPE      H11X           20.0666826712       33.2611789473       -2.6404187143  MEMB      172             0.0000000000
     21347       172  DOPE      H11Y           18.4807091316       32.9792251646       -1.9186454726  MEMB      172             0.0000000000
     21348       172  DOPE      C312           19.6911906556       31.2164270841       -1.9764001932  MEMB      172             0.0000000000
     21349       172  DOPE      H12X           18.8430613582       30.5148668875       -1.9225211125  MEMB      172             0.0000000000
     21350       172  DOPE      H12Y           19.9948702197       31.4579229864       -0.9470075642  MEMB      172             0.0000000000
     21351       172  DOPE      C313           20.8230395670       30.4129286606       -2.6162887620  MEMB      172             0.0000000000
     21352       172  DOPE      H13X           20.4116727940       29.9485478699       -3.5355368925  MEMB      172             0.0000000000
     21353       172  DOPE      H13Y           21.6706186920       31.0577262347       -2.9134213938  MEMB      172             0.0000000000
     21354       172  DOPE      C314           21.3394805827       29.2953915397       -1.6966149221  MEMB      172             0.0000000000
     21355       172  DOPE      H14X           22.1980654518       28.8160946321       -2.2028812832  MEMB      172             0.0000000000
     21356       172  DOPE      H14Y           20.5351426934       28.5383797054       -1.5624508782  MEMB      172             0.0000000000
     21357       172  DOPE      C315           21.8168218170       29.7358472014       -0.3038513823  MEMB      172             0.0000000000
     21358       172  DOPE      H15X           22.2684008582       28.8583901681        0.2088094022  MEMB      172             0.0000000000
     21359       172  DOPE      H15Y           20.9169102899       30.0193503655        0.2712418505  MEMB      172             0.0000000000
     21360       172  DOPE      C316           22.8223022029       30.8976070035       -0.3500349066  MEMB      172             0.0000000000
     21361       172  DOPE      H16X           22.3349340015       31.7765733798       -0.8308139916  MEMB      172             0.0000000000
     21362       172  DOPE      H16Y           23.6636860212       30.5804517275       -1.0054588247  MEMB      172             0.0000000000
     21363       172  DOPE      C317           23.3972210726       31.3598144560        1.0023846524  MEMB      172             0.0000000000
     21364       172  DOPE      H17X           24.2561589078       32.0345465951        0.7870410091  MEMB      172             0.0000000000
     21365       172  DOPE      H17Y           22.6397569398       31.9858229797        1.5249533293  MEMB      172             0.0000000000
     21366       172  DOPE      C318           23.8674327983       30.2453206613        1.9459001940  MEMB      172             0.0000000000
     21367       172  DOPE      H18X           24.5879238501       29.5745845285        1.4319879006  MEMB      172             0.0000000000
     21368       172  DOPE      H18Y           24.3622222787       30.6798192715        2.8411425139  MEMB      172             0.0000000000
     21369       172  DOPE      H18Z           23.0077003876       29.6336472151        2.2945796344  MEMB      172             0.0000000000
     21370       173  23SM      N             -12.1134341240       42.1944320777      -27.3409204267  MEMB      173             0.0000000000
     21371       173  23SM      C15           -10.8504256226       42.8447702048      -27.8291822772  MEMB      173             0.0000000000
     21372       173  23SM      H15A          -10.7782255999       42.7896778840      -28.9043008887  MEMB      173             0.0000000000
     21373       173  23SM      H15B           -9.9789239768       42.3593484116      -27.3876168134  MEMB      173             0.0000000000
     21374       173  23SM      H15C          -10.8128085208       43.8898061080      -27.5492279472  MEMB      173             0.0000000000
     21375       173  23SM      C14           -13.2881209590       42.8902178814      -27.9321268047  MEMB      173             0.0000000000
     21376       173  23SM      H14A          -14.2231361658       42.4219397847      -27.6715967901  MEMB      173             0.0000000000
     21377       173  23SM      H14B          -13.2140133982       42.9513749912      -29.0156408062  MEMB      173             0.0000000000
     21378       173  23SM      H14C          -13.3387679766       43.9264976066      -27.6027752269  MEMB      173             0.0000000000
     21379       173  23SM      C13           -12.0774015746       40.7365216015      -27.6670564866  MEMB      173             0.0000000000
     21380       173  23SM      H13A          -11.2365236695       40.3177416926      -27.0983374706  MEMB      173             0.0000000000
     21381       173  23SM      H13B          -11.9004121534       40.5652722482      -28.7132788973  MEMB      173             0.0000000000
     21382       173  23SM      H13C          -12.9374540469       40.1934127902      -27.3149360644  MEMB      173             0.0000000000
     21383       173  23SM      C12           -12.1770916983       42.2613201403      -25.8311421428  MEMB      173             0.0000000000
     21384       173  23SM      H12A          -12.9184471828       41.5332760465      -25.5237432685  MEMB      173             0.0000000000
     21385       173  23SM      H12B          -12.5349256818       43.2331631523      -25.5125004009  MEMB      173             0.0000000000
     21386       173  23SM      C11           -10.8770224775       41.9819474216      -25.0417606396  MEMB      173             0.0000000000
     21387       173  23SM      H11A          -11.2282027526       41.7738580723      -24.0038991605  MEMB      173             0.0000000000
     21388       173  23SM      H11B          -10.2502193125       42.9003716441      -25.0090124432  MEMB      173             0.0000000000
     21389       173  23SM      P              -9.6350028145       39.6474803712      -24.8320337682  MEMB      173             0.0000000000
     21390       173  23SM      O13           -10.6088957539       38.5729959491      -25.1294079908  MEMB      173             0.0000000000
     21391       173  23SM      O14            -8.1878002311       39.3788799062      -25.0301044399  MEMB      173             0.0000000000
     21392       173  23SM      O11            -9.8150204789       40.1398942120      -23.3567647266  MEMB      173             0.0000000000
     21393       173  23SM      O12           -10.1021879452       40.9292711785      -25.6012971164  MEMB      173             0.0000000000
     21394       173  23SM      C1S           -10.4726974218       39.3184458439      -22.4007205711  MEMB      173             0.0000000000
     21395       173  23SM      H1S           -10.0760644156       38.2840286043      -22.4441538685  MEMB      173             0.0000000000
     21396       173  23SM      H1T           -11.5643196810       39.2806962403      -22.6037166311  MEMB      173             0.0000000000
     21397       173  23SM      NF            -10.7640332987       39.0181453960      -19.9254843799  MEMB      173             0.0000000000
     21398       173  23SM      HNF           -11.5493011286       39.3614655850      -19.4155091272  MEMB      173             0.0000000000
     21399       173  23SM      C2S           -10.2753646476       39.9084442284      -20.9809787438  MEMB      173             0.0000000000
     21400       173  23SM      H2S            -9.1833991492       40.0826674171      -20.8272395819  MEMB      173             0.0000000000
     21401       173  23SM      C3S           -10.9903626929       41.2935241529      -20.9494684163  MEMB      173             0.0000000000
     21402       173  23SM      H3S           -12.0097904548       41.2221797793      -21.3649025582  MEMB      173             0.0000000000
     21403       173  23SM      O3            -10.3699967353       42.2706841479      -21.7594261959  MEMB      173             0.0000000000
     21404       173  23SM      HO3            -9.8341887337       41.7533481714      -22.3790496896  MEMB      173             0.0000000000
     21405       173  23SM      C4S           -11.0394920498       41.7741943448      -19.5365890917  MEMB      173             0.0000000000
     21406       173  23SM      H4S           -10.1335203586       42.2862453965      -19.1894060545  MEMB      173             0.0000000000
     21407       173  23SM      C5S           -12.1082507875       41.6290881446      -18.7275832799  MEMB      173             0.0000000000
     21408       173  23SM      H5S           -13.0018389420       41.0926254010      -19.0936110531  MEMB      173             0.0000000000
     21409       173  23SM      C6S           -12.1748542293       42.0742251880      -17.2929841238  MEMB      173             0.0000000000
     21410       173  23SM      H6S           -12.8956474122       42.9066672996      -17.1471574027  MEMB      173             0.0000000000
     21411       173  23SM      H6T           -11.1777553493       42.4195266083      -16.9386234939  MEMB      173             0.0000000000
     21412       173  23SM      C7S           -12.6066753746       40.8442932640      -16.4648097739  MEMB      173             0.0000000000
     21413       173  23SM      H7S           -12.0424044569       39.9474093991      -16.8195850315  MEMB      173             0.0000000000
     21414       173  23SM      H7T           -13.6887029921       40.6304840762      -16.6304931129  MEMB      173             0.0000000000
     21415       173  23SM      C8S           -12.3254359064       40.9312131387      -14.9570932825  MEMB      173             0.0000000000
     21416       173  23SM      H8S           -11.2583901098       41.2048784885      -14.8044260561  MEMB      173             0.0000000000
     21417       173  23SM      H8T           -12.4676654206       39.9232393855      -14.5242139558  MEMB      173             0.0000000000
     21418       173  23SM      C9S           -13.2379715126       41.8733537801      -14.1699454408  MEMB      173             0.0000000000
     21419       173  23SM      H9S           -14.2183939982       41.3805585110      -13.9783179004  MEMB      173             0.0000000000
     21420       173  23SM      H9T           -13.4355960506       42.7686426095      -14.7993620478  MEMB      173             0.0000000000
     21421       173  23SM      C10S          -12.5907483266       42.3515753976      -12.8536832124  MEMB      173             0.0000000000
     21422       173  23SM      H10S          -13.1969515497       43.1968912415      -12.4904983649  MEMB      173             0.0000000000
     21423       173  23SM      H10T          -11.5604714969       42.7128962729      -13.0559755115  MEMB      173             0.0000000000
     21424       173  23SM      C11S          -12.5524891893       41.3210318459      -11.7184708356  MEMB      173             0.0000000000
     21425       173  23SM      H11S          -11.9702686566       40.4434193898      -12.0566303622  MEMB      173             0.0000000000
     21426       173  23SM      H11T          -13.6039843670       40.9877492553      -11.5813221174  MEMB      173             0.0000000000
     21427       173  23SM      C12S          -11.9682250208       41.8439446885      -10.3750358651  MEMB      173             0.0000000000
     21428       173  23SM      H12S          -12.1841282691       42.9254387702      -10.2763749526  MEMB      173             0.0000000000
     21429       173  23SM      H12T          -10.8635219470       41.7227921452      -10.3886282225  MEMB      173             0.0000000000
     21430       173  23SM      C13S          -12.5723956637       41.1091674784       -9.1676530110  MEMB      173             0.0000000000
     21431       173  23SM      H13S          -12.0085257104       40.1719111171       -8.9851183216  MEMB      173             0.0000000000
     21432       173  23SM      H13T          -13.6291097444       40.8898468239       -9.4440992465  MEMB      173             0.0000000000
     21433       173  23SM      C14S          -12.6888734622       41.7544391510       -7.7932471555  MEMB      173             0.0000000000
     21434       173  23SM      H14S          -13.3744806709       42.6330702876       -7.8367398751  MEMB      173             0.0000000000
     21435       173  23SM      H14T          -11.7139470673       42.0695022868       -7.3829480456  MEMB      173             0.0000000000
     21436       173  23SM      C15S          -13.3459231984       40.7640209844       -6.8201616999  MEMB      173             0.0000000000
     21437       173  23SM      H15S          -12.7759491895       39.8224157542       -6.6608621385  MEMB      173             0.0000000000
     21438       173  23SM      H15T          -14.2976289055       40.5409474264       -7.3443521565  MEMB      173             0.0000000000
     21439       173  23SM      C16S          -13.6032792553       41.5201315530       -5.5268545986  MEMB      173             0.0000000000
     21440       173  23SM      H16S          -14.1441667350       42.4037443149       -5.9100642416  MEMB      173             0.0000000000
     21441       173  23SM      H16T          -12.6260097191       41.8277392184       -5.1011349032  MEMB      173             0.0000000000
     21442       173  23SM      C17S          -14.4753204630       40.9266991583       -4.4228721515  MEMB      173             0.0000000000
     21443       173  23SM      H17S          -15.4639915270       40.6554282206       -4.8567085003  MEMB      173             0.0000000000
     21444       173  23SM      H17T          -14.6705891146       41.7323597377       -3.6743181544  MEMB      173             0.0000000000
     21445       173  23SM      C18S          -13.8085131335       39.7799809760       -3.6668182822  MEMB      173             0.0000000000
     21446       173  23SM      H18S          -14.3389560771       39.5384783243       -2.7195283849  MEMB      173             0.0000000000
     21447       173  23SM      H18T          -12.7380450556       39.9801420445       -3.4882061892  MEMB      173             0.0000000000
     21448       173  23SM      H18U          -13.8173373191       38.8607701248       -4.2508385000  MEMB      173             0.0000000000
     21449       173  23SM      C1F           -10.3137822136       37.7852182640      -19.6917964853  MEMB      173             0.0000000000
     21450       173  23SM      OF             -9.6160971946       37.1909574225      -20.5035624225  MEMB      173             0.0000000000
     21451       173  23SM      C2F           -10.8214775334       37.0962704268      -18.4497874233  MEMB      173             0.0000000000
     21452       173  23SM      H2F           -11.5123761520       36.2974695489      -18.7948622564  MEMB      173             0.0000000000
     21453       173  23SM      H2G           -11.4032192406       37.8065834069      -17.8269406843  MEMB      173             0.0000000000
     21454       173  23SM      C3F            -9.6836947195       36.4659252418      -17.6042422419  MEMB      173             0.0000000000
     21455       173  23SM      H3F            -9.1989863961       37.2347010169      -16.9660500958  MEMB      173             0.0000000000
     21456       173  23SM      H3G            -8.8850482740       36.1061056803      -18.2907458338  MEMB      173             0.0000000000
     21457       173  23SM      C4F           -10.1133508134       35.2509478984      -16.7558194286  MEMB      173             0.0000000000
     21458       173  23SM      H4F            -9.5147607025       34.3726533807      -17.0940308115  MEMB      173             0.0000000000
     21459       173  23SM      H4G           -11.1831529801       35.0221255695      -16.9505829530  MEMB      173             0.0000000000
     21460       173  23SM      C5F            -9.8454392645       35.3295606325      -15.2402859202  MEMB      173             0.0000000000
     21461       173  23SM      H5F           -10.1100236167       36.3346457065      -14.8547130215  MEMB      173             0.0000000000
     21462       173  23SM      H5G            -8.7529063571       35.2079940403      -15.0676633153  MEMB      173             0.0000000000
     21463       173  23SM      C6F           -10.6310839843       34.1912804913      -14.5473170500  MEMB      173             0.0000000000
     21464       173  23SM      H6F           -10.2614515962       33.2199880142      -14.9415832757  MEMB      173             0.0000000000
     21465       173  23SM      H6G           -11.6944269872       34.3033646531      -14.8546368220  MEMB      173             0.0000000000
     21466       173  23SM      C7F           -10.5899034040       34.1188439178      -13.0100843003  MEMB      173             0.0000000000
     21467       173  23SM      H7F           -10.4356410692       35.1365648755      -12.5886556280  MEMB      173             0.0000000000
     21468       173  23SM      H7G            -9.7137017933       33.5158047513      -12.6889483495  MEMB      173             0.0000000000
     21469       173  23SM      C8F           -11.8937530118       33.5577206359      -12.3959374668  MEMB      173             0.0000000000
     21470       173  23SM      H8F           -12.1277269266       32.5480567562      -12.7963952610  MEMB      173             0.0000000000
     21471       173  23SM      H8G           -12.7324245193       34.2192216479      -12.6846960546  MEMB      173             0.0000000000
     21472       173  23SM      C9F           -11.7928474264       33.5581925658      -10.8640530710  MEMB      173             0.0000000000
     21473       173  23SM      H9F           -11.0239363553       34.3374413881      -10.6485732397  MEMB      173             0.0000000000
     21474       173  23SM      H9G           -11.3798895588       32.5876889826      -10.5176803829  MEMB      173             0.0000000000
     21475       173  23SM      C10F          -13.0448974988       33.9674840085      -10.0527784586  MEMB      173             0.0000000000
     21476       173  23SM      H10F          -13.5900887347       33.0685702152       -9.7023455386  MEMB      173             0.0000000000
     21477       173  23SM      H10G          -13.7408183028       34.5037984591      -10.7371032805  MEMB      173             0.0000000000
     21478       173  23SM      C11F          -12.7294191084       34.9328440813       -8.8670681389  MEMB      173             0.0000000000
     21479       173  23SM      H11F          -13.2574544023       35.8722068742       -9.0838176057  MEMB      173             0.0000000000
     21480       173  23SM      H11G          -11.6507125274       35.1976505490       -8.8543955406  MEMB      173             0.0000000000
     21481       173  23SM      C12F          -13.1582164670       34.4600822990       -7.4557066225  MEMB      173             0.0000000000
     21482       173  23SM      H12F          -12.7992832659       33.4216793230       -7.3374986566  MEMB      173             0.0000000000
     21483       173  23SM      H12G          -14.2587067240       34.4012353887       -7.4492400021  MEMB      173             0.0000000000
     21484       173  23SM      C13F          -12.6624722137       35.3172186264       -6.2472516545  MEMB      173             0.0000000000
     21485       173  23SM      H13F          -12.7901373906       36.3988886260       -6.3949999269  MEMB      173             0.0000000000
     21486       173  23SM      H13G          -11.5700489501       35.2627119653       -6.1797386756  MEMB      173             0.0000000000
     21487       173  23SM      C14F          -13.2968955778       34.9727322977       -4.8748823416  MEMB      173             0.0000000000
     21488       173  23SM      H14F          -13.6436051393       33.9173425903       -4.8457897708  MEMB      173             0.0000000000
     21489       173  23SM      H14G          -14.2104586164       35.6010386677       -4.7725794497  MEMB      173             0.0000000000
     21490       173  23SM      C15F          -12.3770449983       35.2099808983       -3.6479180328  MEMB      173             0.0000000000
     21491       173  23SM      H15F          -11.3603397372       35.4978385076       -3.9842398811  MEMB      173             0.0000000000
     21492       173  23SM      H15G          -12.2736479882       34.2577271946       -3.0794730739  MEMB      173             0.0000000000
     21493       173  23SM      C16F          -12.9260110864       36.2951339257       -2.7098912724  MEMB      173             0.0000000000
     21494       173  23SM      H16F          -13.8594035901       35.9140723067       -2.2404333940  MEMB      173             0.0000000000
     21495       173  23SM      H16G          -13.2028147834       37.1669854118       -3.3292652615  MEMB      173             0.0000000000
     21496       173  23SM      C17F          -12.0099248350       36.7802708529       -1.5727952663  MEMB      173             0.0000000000
     21497       173  23SM      H17F          -11.5727080195       35.9286983327       -1.0106645047  MEMB      173             0.0000000000
     21498       173  23SM      H17G          -12.6749022361       37.3318956294       -0.8698771586  MEMB      173             0.0000000000
     21499       173  23SM      C18F          -10.8971019265       37.7579646358       -1.9807942523  MEMB      173             0.0000000000
     21500       173  23SM      H18F          -11.2992509506       38.5633703815       -2.6279180125  MEMB      173             0.0000000000
     21501       173  23SM      H18G          -10.1518074555       37.2151513060       -2.5913236450  MEMB      173             0.0000000000
     21502       173  23SM      C19F          -10.2214405660       38.3922723580       -0.7513638001  MEMB      173             0.0000000000
     21503       173  23SM      H19F           -9.3434226476       39.0031573990       -1.0386497896  MEMB      173             0.0000000000
     21504       173  23SM      H19G           -9.8415789995       37.5794273455       -0.0925321553  MEMB      173             0.0000000000
     21505       173  23SM      C20F          -11.1220750239       39.3297874952        0.0557787547  MEMB      173             0.0000000000
     21506       173  23SM      H20F          -10.5534674605       39.5952595512        0.9702895607  MEMB      173             0.0000000000
     21507       173  23SM      H20G          -12.0357959766       38.8104754444        0.3900744923  MEMB      173             0.0000000000
     21508       173  23SM      C21F          -11.5134898641       40.6210873486       -0.6749592914  MEMB      173             0.0000000000
     21509       173  23SM      H21F          -11.8299734139       40.3977521624       -1.7126502489  MEMB      173             0.0000000000
     21510       173  23SM      H21G          -10.6089061056       41.2603279026       -0.7527926849  MEMB      173             0.0000000000
     21511       173  23SM      C22F          -12.6633244659       41.3701585486        0.0210833490  MEMB      173             0.0000000000
     21512       173  23SM      H22F          -13.6125197358       40.8404541162       -0.2303272659  MEMB      173             0.0000000000
     21513       173  23SM      H22G          -12.7462805436       42.3971345875       -0.3999432787  MEMB      173             0.0000000000
     21514       173  23SM      C23F          -12.5550985713       41.4349673854        1.5496343346  MEMB      173             0.0000000000
     21515       173  23SM      H23F          -11.5451765439       41.1458731509        1.8919875972  MEMB      173             0.0000000000
     21516       173  23SM      H23G          -13.2683937590       40.7217643577        2.0137759199  MEMB      173             0.0000000000
     21517       173  23SM      H23H          -12.7577097645       42.4537627718        1.9367060484  MEMB      173             0.0000000000
     21518       174  CHL1      C3             16.8769576763      -33.7133001525      -17.2726763318  MEMB      174             0.0000000000
     21519       174  CHL1      H3             15.8157525995      -33.5477346546      -16.9627853670  MEMB      174             0.0000000000
     21520       174  CHL1      O3             16.9334050604      -33.8966733145      -18.6734910639  MEMB      174             0.0000000000
     21521       174  CHL1      H3'            16.9675264577      -32.9914699705      -19.0065334671  MEMB      174             0.0000000000
     21522       174  CHL1      C4             17.7220851992      -32.4798928971      -16.9435189807  MEMB      174             0.0000000000
     21523       174  CHL1      H4A            18.7670188624      -32.6646909412      -17.2762575369  MEMB      174             0.0000000000
     21524       174  CHL1      H4B            17.3353290707      -31.6256731336      -17.5446938901  MEMB      174             0.0000000000
     21525       174  CHL1      C5             17.6920341583      -32.1838657204      -15.4649930966  MEMB      174             0.0000000000
     21526       174  CHL1      C6             17.2975829434      -30.9852618096      -15.0085960882  MEMB      174             0.0000000000
     21527       174  CHL1      H6             17.0779239157      -30.1736847917      -15.7177115311  MEMB      174             0.0000000000
     21528       174  CHL1      C7             17.1922936556      -30.6413802148      -13.5548033897  MEMB      174             0.0000000000
     21529       174  CHL1      H7A            17.6824424687      -29.6668345114      -13.3369292732  MEMB      174             0.0000000000
     21530       174  CHL1      H7B            16.1163711752      -30.5304355596      -13.2978007383  MEMB      174             0.0000000000
     21531       174  CHL1      C8             17.8064856674      -31.7170148793      -12.6237100160  MEMB      174             0.0000000000
     21532       174  CHL1      H8             18.9021534587      -31.5374295496      -12.5768925386  MEMB      174             0.0000000000
     21533       174  CHL1      C14            17.1948955044      -31.5844789252      -11.2503145540  MEMB      174             0.0000000000
     21534       174  CHL1      H14            16.1024705538      -31.8033197946      -11.3822902237  MEMB      174             0.0000000000
     21535       174  CHL1      C15            17.2361274790      -30.2135329160      -10.5714039397  MEMB      174             0.0000000000
     21536       174  CHL1      H15A           18.2873545379      -29.8683138316      -10.5161532165  MEMB      174             0.0000000000
     21537       174  CHL1      H15B           16.6316231647      -29.4402494090      -11.0823004779  MEMB      174             0.0000000000
     21538       174  CHL1      C16            16.7177233578      -30.5462589905       -9.1730758311  MEMB      174             0.0000000000
     21539       174  CHL1      H16A           17.2022972958      -29.8866498617       -8.4313822759  MEMB      174             0.0000000000
     21540       174  CHL1      H16B           15.6193709098      -30.3735398613       -9.1343105097  MEMB      174             0.0000000000
     21541       174  CHL1      C17            16.9690999795      -32.0807481692       -8.9631447014  MEMB      174             0.0000000000
     21542       174  CHL1      H17            15.9566170149      -32.5500965526       -8.9800470027  MEMB      174             0.0000000000
     21543       174  CHL1      C13            17.7032329701      -32.5853958260      -10.2236492856  MEMB      174             0.0000000000
     21544       174  CHL1      C18            19.2410633264      -32.4513712022      -10.0478895130  MEMB      174             0.0000000000
     21545       174  CHL1      H18A           19.6291044707      -33.1952536649       -9.3250472546  MEMB      174             0.0000000000
     21546       174  CHL1      H18B           19.7826845076      -32.6055862044      -10.9997036440  MEMB      174             0.0000000000
     21547       174  CHL1      H18C           19.5088664216      -31.4470656061       -9.6862217541  MEMB      174             0.0000000000
     21548       174  CHL1      C12            17.3320912270      -33.9948228202      -10.7090289238  MEMB      174             0.0000000000
     21549       174  CHL1      H12A           17.7067692197      -34.7738001038      -10.0182288948  MEMB      174             0.0000000000
     21550       174  CHL1      H12B           16.2242474170      -34.0756046479      -10.7579134576  MEMB      174             0.0000000000
     21551       174  CHL1      C11            17.9099910323      -34.2509178092      -12.1079749416  MEMB      174             0.0000000000
     21552       174  CHL1      H11A           19.0119289351      -34.3395228936      -12.0304896744  MEMB      174             0.0000000000
     21553       174  CHL1      H11B           17.5308372100      -35.2366019211      -12.4492174806  MEMB      174             0.0000000000
     21554       174  CHL1      C9             17.5181765259      -33.1364596390      -13.1237609895  MEMB      174             0.0000000000
     21555       174  CHL1      H9             16.4003778597      -33.1905693654      -13.1809895235  MEMB      174             0.0000000000
     21556       174  CHL1      C10            18.0202544600      -33.3862839649      -14.5570417673  MEMB      174             0.0000000000
     21557       174  CHL1      C19            19.5626544634      -33.4839699280      -14.5313977515  MEMB      174             0.0000000000
     21558       174  CHL1      H19A           20.0041701028      -32.5894532078      -14.0452281633  MEMB      174             0.0000000000
     21559       174  CHL1      H19B           19.9054872848      -34.3797911875      -13.9793587004  MEMB      174             0.0000000000
     21560       174  CHL1      H19C           19.9827335767      -33.5528878529      -15.5569858029  MEMB      174             0.0000000000
     21561       174  CHL1      C1             17.3971086086      -34.7290996527      -15.0528435559  MEMB      174             0.0000000000
     21562       174  CHL1      H1A            17.9042784454      -35.5759265365      -14.5426339014  MEMB      174             0.0000000000
     21563       174  CHL1      H1B            16.3263462975      -34.7421131813      -14.7467271378  MEMB      174             0.0000000000
     21564       174  CHL1      C2             17.4290255852      -34.9521841547      -16.5663776322  MEMB      174             0.0000000000
     21565       174  CHL1      H2A            16.8126267290      -35.8419100050      -16.8167549414  MEMB      174             0.0000000000
     21566       174  CHL1      H2B            18.4712741099      -35.1444066306      -16.9013666218  MEMB      174             0.0000000000
     21567       174  CHL1      C20            17.5957941669      -32.4474023669       -7.6261761084  MEMB      174             0.0000000000
     21568       174  CHL1      H20            18.6669349871      -32.1350428335       -7.6221124113  MEMB      174             0.0000000000
     21569       174  CHL1      C21            17.5208875118      -33.9804079646       -7.4163827281  MEMB      174             0.0000000000
     21570       174  CHL1      H21A           17.7337598980      -34.2583012652       -6.3650449190  MEMB      174             0.0000000000
     21571       174  CHL1      H21B           18.2703469494      -34.5003716977       -8.0441692984  MEMB      174             0.0000000000
     21572       174  CHL1      H21C           16.5062965549      -34.3528793211       -7.6700356436  MEMB      174             0.0000000000
     21573       174  CHL1      C22            16.9555614754      -31.7330290329       -6.4218291517  MEMB      174             0.0000000000
     21574       174  CHL1      H22A           16.7047436114      -30.6707124068       -6.6191719181  MEMB      174             0.0000000000
     21575       174  CHL1      H22B           16.0155021168      -32.2523178751       -6.1517601918  MEMB      174             0.0000000000
     21576       174  CHL1      C23            17.9887328237      -31.7201706165       -5.2974774735  MEMB      174             0.0000000000
     21577       174  CHL1      H23A           18.3591173012      -32.7479281652       -5.0992078616  MEMB      174             0.0000000000
     21578       174  CHL1      H23B           18.8406081765      -31.1351464898       -5.7050663357  MEMB      174             0.0000000000
     21579       174  CHL1      C24            17.5393093751      -31.0945390343       -3.9827184841  MEMB      174             0.0000000000
     21580       174  CHL1      H24A           18.3506920556      -31.2350283462       -3.2295550925  MEMB      174             0.0000000000
     21581       174  CHL1      H24B           17.3972571217      -30.0003056738       -4.1238529652  MEMB      174             0.0000000000
     21582       174  CHL1      C25            16.2504635174      -31.7206673929       -3.4288056428  MEMB      174             0.0000000000
     21583       174  CHL1      H25            15.4498323658      -31.6457746102       -4.1996498910  MEMB      174             0.0000000000
     21584       174  CHL1      C26            16.4370378649      -33.2031685274       -3.0603198884  MEMB      174             0.0000000000
     21585       174  CHL1      H26A           17.2475757746      -33.3165978250       -2.3100915860  MEMB      174             0.0000000000
     21586       174  CHL1      H26B           15.4967085863      -33.6082114147       -2.6302855627  MEMB      174             0.0000000000
     21587       174  CHL1      H26C           16.6939069440      -33.8077529271       -3.9549481384  MEMB      174             0.0000000000
     21588       174  CHL1      C27            15.7997238536      -30.9186845009       -2.2150371502  MEMB      174             0.0000000000
     21589       174  CHL1      H27A           14.9403206013      -31.4060883897       -1.7089358069  MEMB      174             0.0000000000
     21590       174  CHL1      H27B           16.6561449172      -30.8657977548       -1.5142987962  MEMB      174             0.0000000000
     21591       174  CHL1      H27C           15.5153174910      -29.8841841401       -2.4996496377  MEMB      174             0.0000000000
     21592       175  DOPC      N             -16.6503023567       33.0013157943      -17.4530899461  MEMB      175             0.0000000000
     21593       175  DOPC      C12           -15.3886199124       33.4861751618      -18.1500051863  MEMB      175             0.0000000000
     21594       175  DOPC      H12A          -14.5313862259       33.0517125123      -17.6552253220  MEMB      175             0.0000000000
     21595       175  DOPC      H12B          -15.3298642351       34.5657222408      -18.0292183762  MEMB      175             0.0000000000
     21596       175  DOPC      C13           -16.9332247666       31.5671891750      -17.8323699520  MEMB      175             0.0000000000
     21597       175  DOPC      H13A          -17.9152808055       31.2228813531      -17.5048086603  MEMB      175             0.0000000000
     21598       175  DOPC      H13B          -16.9481230598       31.4607045141      -18.9126773475  MEMB      175             0.0000000000
     21599       175  DOPC      H13C          -16.1921423492       30.8725749435      -17.4619867448  MEMB      175             0.0000000000
     21600       175  DOPC      C14           -17.7855174320       33.8367037905      -17.9444347594  MEMB      175             0.0000000000
     21601       175  DOPC      H14A          -17.7009736610       34.8830742172      -17.6910904366  MEMB      175             0.0000000000
     21602       175  DOPC      H14B          -17.8090695182       33.7769119712      -19.0305722822  MEMB      175             0.0000000000
     21603       175  DOPC      H14C          -18.7704484635       33.4674838956      -17.6506546142  MEMB      175             0.0000000000
     21604       175  DOPC      C15           -16.5504199634       33.1178859807      -15.9665154144  MEMB      175             0.0000000000
     21605       175  DOPC      H15A          -15.7401568681       32.5101764191      -15.5878695431  MEMB      175             0.0000000000
     21606       175  DOPC      H15B          -17.4555942864       32.7197693733      -15.5187950770  MEMB      175             0.0000000000
     21607       175  DOPC      H15C          -16.4311862762       34.1453257102      -15.6517594706  MEMB      175             0.0000000000
     21608       175  DOPC      C11           -15.2697117646       33.2173666180      -19.6815966050  MEMB      175             0.0000000000
     21609       175  DOPC      H11A          -14.2193560863       33.4360969068      -19.9794534052  MEMB      175             0.0000000000
     21610       175  DOPC      H11B          -15.3893034101       32.1301736575      -19.8843502531  MEMB      175             0.0000000000
     21611       175  DOPC      P             -15.8456662745       35.4730553585      -20.8225065993  MEMB      175             0.0000000000
     21612       175  DOPC      O13           -16.7593613171       36.0829208746      -21.7996812329  MEMB      175             0.0000000000
     21613       175  DOPC      O14           -14.3891024412       35.5268330986      -21.1149996623  MEMB      175             0.0000000000
     21614       175  DOPC      O12           -16.2128054760       33.9673057647      -20.4755045286  MEMB      175             0.0000000000
     21615       175  DOPC      O11           -16.1052594218       36.1368220203      -19.4363550913  MEMB      175             0.0000000000
     21616       175  DOPC      C1            -16.4392995018       37.5210721028      -19.4107702592  MEMB      175             0.0000000000
     21617       175  DOPC      HA            -17.3591395123       37.7463942569      -20.0030334989  MEMB      175             0.0000000000
     21618       175  DOPC      HB            -15.5737103211       38.1289626639      -19.7597563539  MEMB      175             0.0000000000
     21619       175  DOPC      C2            -16.6802107171       37.9529749109      -17.9721380584  MEMB      175             0.0000000000
     21620       175  DOPC      HS            -16.4738205097       39.0466251270      -17.8454150054  MEMB      175             0.0000000000
     21621       175  DOPC      O21           -15.8745009837       37.1541477312      -17.1090914394  MEMB      175             0.0000000000
     21622       175  DOPC      C21           -14.6788901144       37.5963412121      -16.9238884679  MEMB      175             0.0000000000
     21623       175  DOPC      O22           -14.0103977994       38.3295201883      -17.6338875898  MEMB      175             0.0000000000
     21624       175  DOPC      C22           -14.3406021100       37.0715837037      -15.5497091753  MEMB      175             0.0000000000
     21625       175  DOPC      H2R           -14.7135985233       36.0307849853      -15.4372002753  MEMB      175             0.0000000000
     21626       175  DOPC      H2S           -14.8773843130       37.7061177875      -14.8125845956  MEMB      175             0.0000000000
     21627       175  DOPC      C3            -18.1399288654       37.7348587078      -17.5439521261  MEMB      175             0.0000000000
     21628       175  DOPC      HX            -18.4829005429       36.7655771078      -17.9658570825  MEMB      175             0.0000000000
     21629       175  DOPC      HY            -18.7926149200       38.5232124762      -17.9556589317  MEMB      175             0.0000000000
     21630       175  DOPC      O31           -18.3087362182       37.6469567679      -16.1374489214  MEMB      175             0.0000000000
     21631       175  DOPC      C31           -17.6077208600       38.3464052164      -15.2679076456  MEMB      175             0.0000000000
     21632       175  DOPC      O32           -16.7442625949       39.1826438641      -15.4366563292  MEMB      175             0.0000000000
     21633       175  DOPC      C32           -17.9845570589       37.6962996383      -13.9561242315  MEMB      175             0.0000000000
     21634       175  DOPC      H2X           -19.0937671727       37.7574663702      -13.9301167124  MEMB      175             0.0000000000
     21635       175  DOPC      H2Y           -17.6799214993       36.6302188570      -14.0214027459  MEMB      175             0.0000000000
     21636       175  DOPC      C23           -12.8621348933       37.1168932969      -15.2356295174  MEMB      175             0.0000000000
     21637       175  DOPC      H3R           -12.4121345798       38.1111301921      -15.4234616844  MEMB      175             0.0000000000
     21638       175  DOPC      H3S           -12.3360664481       36.3945008192      -15.8923607998  MEMB      175             0.0000000000
     21639       175  DOPC      C24           -12.7269770563       36.6908796225      -13.7911884934  MEMB      175             0.0000000000
     21640       175  DOPC      H4R           -11.7231863269       36.2667535851      -13.6560661576  MEMB      175             0.0000000000
     21641       175  DOPC      H4S           -13.4839374544       35.9152445852      -13.5384673050  MEMB      175             0.0000000000
     21642       175  DOPC      C25           -12.7920291037       37.7781210311      -12.7419746035  MEMB      175             0.0000000000
     21643       175  DOPC      H5R           -13.8322234464       38.1412580398      -12.6103073603  MEMB      175             0.0000000000
     21644       175  DOPC      H5S           -12.1346573461       38.6250232175      -13.0265894725  MEMB      175             0.0000000000
     21645       175  DOPC      C26           -12.2338728107       37.1588496804      -11.4703239367  MEMB      175             0.0000000000
     21646       175  DOPC      H6R           -11.1407557620       36.9893496909      -11.6193368334  MEMB      175             0.0000000000
     21647       175  DOPC      H6S           -12.6980765069       36.1716859632      -11.3186266952  MEMB      175             0.0000000000
     21648       175  DOPC      C27           -12.4334410720       38.0211831687      -10.2464755930  MEMB      175             0.0000000000
     21649       175  DOPC      H7R           -11.8777429228       38.9488640621      -10.5039088224  MEMB      175             0.0000000000
     21650       175  DOPC      H7S           -11.9310590198       37.5807312297       -9.3588912697  MEMB      175             0.0000000000
     21651       175  DOPC      C28           -13.8800020905       38.4457661306       -9.9091678153  MEMB      175             0.0000000000
     21652       175  DOPC      H8R           -14.1277860221       39.2705375514      -10.6039715203  MEMB      175             0.0000000000
     21653       175  DOPC      H8S           -13.8018070576       38.9036086955       -8.8998141426  MEMB      175             0.0000000000
     21654       175  DOPC      C29           -15.0868629302       37.5646543624       -9.9260729835  MEMB      175             0.0000000000
     21655       175  DOPC      H9R           -15.4080015147       37.2611870517      -10.9297617155  MEMB      175             0.0000000000
     21656       175  DOPC      C210          -15.6299389618       36.9896011649       -8.8412213751  MEMB      175             0.0000000000
     21657       175  DOPC      H10R          -16.5246374440       36.3543722205       -8.9393516006  MEMB      175             0.0000000000
     21658       175  DOPC      C211          -15.0484726033       37.1505308453       -7.4655256673  MEMB      175             0.0000000000
     21659       175  DOPC      H11R          -13.9539925658       37.2576256144       -7.6320108433  MEMB      175             0.0000000000
     21660       175  DOPC      H11S          -15.1731853926       36.1792743682       -6.9462787846  MEMB      175             0.0000000000
     21661       175  DOPC      C212          -15.3119191266       38.1901356136       -6.3536445986  MEMB      175             0.0000000000
     21662       175  DOPC      H12R          -15.4302226403       39.2278686677       -6.6760781536  MEMB      175             0.0000000000
     21663       175  DOPC      H12S          -14.3769441486       38.0401098659       -5.7774741174  MEMB      175             0.0000000000
     21664       175  DOPC      C213          -16.4913725976       37.8483811035       -5.4747524915  MEMB      175             0.0000000000
     21665       175  DOPC      H13R          -16.3347240755       36.7630807202       -5.3175537904  MEMB      175             0.0000000000
     21666       175  DOPC      H13S          -17.4115174777       38.1022926710       -6.0531231222  MEMB      175             0.0000000000
     21667       175  DOPC      C214          -16.6362872499       38.2536815590       -4.0124048061  MEMB      175             0.0000000000
     21668       175  DOPC      H14R          -16.2719853995       39.2383704524       -3.6915292134  MEMB      175             0.0000000000
     21669       175  DOPC      H14S          -16.1400676641       37.4701853087       -3.3868872096  MEMB      175             0.0000000000
     21670       175  DOPC      C215          -18.1139471693       38.2489108358       -3.7085863108  MEMB      175             0.0000000000
     21671       175  DOPC      H15R          -18.6479692152       37.5867519001       -4.4307158022  MEMB      175             0.0000000000
     21672       175  DOPC      H15S          -18.5411889760       39.2715311247       -3.8289514122  MEMB      175             0.0000000000
     21673       175  DOPC      C216          -18.3958405759       37.7762546899       -2.3078127311  MEMB      175             0.0000000000
     21674       175  DOPC      H16R          -17.9321811087       38.4720650422       -1.6216488740  MEMB      175             0.0000000000
     21675       175  DOPC      H16S          -17.8829270101       36.8563557771       -1.9759242639  MEMB      175             0.0000000000
     21676       175  DOPC      C217          -19.8974104094       37.6673877919       -2.2136726103  MEMB      175             0.0000000000
     21677       175  DOPC      H17R          -20.3129105825       37.6139806130       -3.2529754394  MEMB      175             0.0000000000
     21678       175  DOPC      H17S          -20.3155098743       38.5860059335       -1.7867878944  MEMB      175             0.0000000000
     21679       175  DOPC      C218          -20.3446300263       36.3906221842       -1.5598252183  MEMB      175             0.0000000000
     21680       175  DOPC      H18R          -19.6399524098       36.0095013978       -0.8005900113  MEMB      175             0.0000000000
     21681       175  DOPC      H18S          -20.5114523254       35.7554884530       -2.4403867628  MEMB      175             0.0000000000
     21682       175  DOPC      H18T          -21.3389781739       36.3308098886       -1.1245081042  MEMB      175             0.0000000000
     21683       175  DOPC      C33           -17.3530891355       38.3110198025      -12.7017134825  MEMB      175             0.0000000000
     21684       175  DOPC      H3X           -17.5705257286       39.3985018771      -12.6512079436  MEMB      175             0.0000000000
     21685       175  DOPC      H3Y           -16.2428410347       38.2408529167      -12.7394656528  MEMB      175             0.0000000000
     21686       175  DOPC      C34           -17.8868087433       37.5808308903      -11.4562506678  MEMB      175             0.0000000000
     21687       175  DOPC      H4X           -17.7850664392       38.2594325289      -10.5817194822  MEMB      175             0.0000000000
     21688       175  DOPC      H4Y           -17.2674549338       36.6752482807      -11.2759309141  MEMB      175             0.0000000000
     21689       175  DOPC      C35           -19.3288926035       37.0482862404      -11.5666745539  MEMB      175             0.0000000000
     21690       175  DOPC      H5X           -19.3380186196       36.1339438504      -12.1992042874  MEMB      175             0.0000000000
     21691       175  DOPC      H5Y           -19.9390918888       37.8347307395      -12.0695335503  MEMB      175             0.0000000000
     21692       175  DOPC      C36           -19.9819856268       36.7687543771      -10.1986258960  MEMB      175             0.0000000000
     21693       175  DOPC      H6X           -19.2162155293       37.0569815239       -9.4559598224  MEMB      175             0.0000000000
     21694       175  DOPC      H6Y           -20.8205428837       37.4951793949      -10.1097386397  MEMB      175             0.0000000000
     21695       175  DOPC      C37           -20.4042924859       35.3135413123       -9.8190706202  MEMB      175             0.0000000000
     21696       175  DOPC      H7X           -21.1098185711       34.9513970615      -10.6027816808  MEMB      175             0.0000000000
     21697       175  DOPC      H7Y           -19.4652228496       34.7137967457       -9.9093424280  MEMB      175             0.0000000000
     21698       175  DOPC      C38           -20.7734595429       35.1291394109       -8.1868409728  MEMB      175             0.0000000000
     21699       175  DOPC      H8X           -21.5182302739       35.7837251043       -8.6054701992  MEMB      175             0.0000000000
     21700       175  DOPC      H8Y           -20.0839523381       35.9173929001       -7.9416579004  MEMB      175             0.0000000000
     21701       175  DOPC      C39           -21.4151539041       34.9553456795       -6.7773648973  MEMB      175             0.0000000000
     21702       175  DOPC      H9X           -22.0542503686       35.8262388408       -6.6353039242  MEMB      175             0.0000000000
     21703       175  DOPC      C310          -21.4602171198       33.7774665243       -6.0575608071  MEMB      175             0.0000000000
     21704       175  DOPC      H10X          -22.0547232807       33.6921075659       -5.1071912039  MEMB      175             0.0000000000
     21705       175  DOPC      C311          -20.8559898185       32.3368833833       -6.4884843972  MEMB      175             0.0000000000
     21706       175  DOPC      H11X          -20.5254155010       31.8385114730       -7.5046655389  MEMB      175             0.0000000000
     21707       175  DOPC      H11Y          -21.5873364146       31.5812660852       -6.2567740517  MEMB      175             0.0000000000
     21708       175  DOPC      C312          -20.0011722462       31.6773614619       -5.1942366401  MEMB      175             0.0000000000
     21709       175  DOPC      H12X          -20.4867623573       30.8206975487       -4.6732952445  MEMB      175             0.0000000000
     21710       175  DOPC      H12Y          -20.1608151490       32.3567237726       -4.3370961234  MEMB      175             0.0000000000
     21711       175  DOPC      C313          -18.4425445314       31.1699838574       -5.1509030670  MEMB      175             0.0000000000
     21712       175  DOPC      H13X          -18.3262404044       30.1911292937       -5.6426476948  MEMB      175             0.0000000000
     21713       175  DOPC      H13Y          -17.8287302998       31.8570581127       -5.7338760359  MEMB      175             0.0000000000
     21714       175  DOPC      C314          -17.6291788900       31.1275733804       -3.7721437642  MEMB      175             0.0000000000
     21715       175  DOPC      H14X          -18.1946457830       31.8751699154       -3.2476400387  MEMB      175             0.0000000000
     21716       175  DOPC      H14Y          -17.7425192768       30.1694326560       -3.2229516202  MEMB      175             0.0000000000
     21717       175  DOPC      C315          -16.1721044140       31.7447425259       -3.5443917266  MEMB      175             0.0000000000
     21718       175  DOPC      H15X          -15.9872504158       32.5111853199       -4.3227579031  MEMB      175             0.0000000000
     21719       175  DOPC      H15Y          -15.4391857017       30.9227616867       -3.6863302862  MEMB      175             0.0000000000
     21720       175  DOPC      C316          -15.9697973235       32.3098823873       -2.0704991386  MEMB      175             0.0000000000
     21721       175  DOPC      H16X          -16.9164061183       32.7428444263       -1.7948439504  MEMB      175             0.0000000000
     21722       175  DOPC      H16Y          -15.8782311392       31.4697226899       -1.3785954393  MEMB      175             0.0000000000
     21723       175  DOPC      C317          -15.0774709861       33.4866785186       -1.5480773876  MEMB      175             0.0000000000
     21724       175  DOPC      H17X          -14.0167747146       33.3421248279       -1.8150738968  MEMB      175             0.0000000000
     21725       175  DOPC      H17Y          -15.3965161751       34.4522099299       -1.9973213063  MEMB      175             0.0000000000
     21726       175  DOPC      C318          -15.1977171845       33.6854639202       -0.0040038811  MEMB      175             0.0000000000
     21727       175  DOPC      H18X          -15.1151888172       32.7200418645        0.5388255692  MEMB      175             0.0000000000
     21728       175  DOPC      H18Y          -14.3968295631       34.3453542518        0.3973291550  MEMB      175             0.0000000000
     21729       175  DOPC      H18Z          -16.1698187472       34.1418608217        0.2845575318  MEMB      175             0.0000000000
     21730       176  DOPE      N             -35.3793526676       -2.2799762505      -20.1231890598  MEMB      176             0.0000000000
     21731       176  DOPE      HN1           -34.3964730692       -2.3777450725      -20.4428833431  MEMB      176             0.0000000000
     21732       176  DOPE      HN2           -35.9118857198       -3.1671187461      -20.2684504746  MEMB      176             0.0000000000
     21733       176  DOPE      HN3           -35.8400587324       -1.5397936883      -20.7172751281  MEMB      176             0.0000000000
     21734       176  DOPE      C12           -35.5819393637       -1.8009783033      -18.7240982596  MEMB      176             0.0000000000
     21735       176  DOPE      H12A          -34.8830744426       -0.9575752734      -18.5424693588  MEMB      176             0.0000000000
     21736       176  DOPE      H12B          -35.3879388805       -2.6254427920      -18.0083741518  MEMB      176             0.0000000000
     21737       176  DOPE      C11           -37.0191969647       -1.2979246136      -18.6629566233  MEMB      176             0.0000000000
     21738       176  DOPE      H11A          -37.1689627694       -0.7404463169      -17.7123449361  MEMB      176             0.0000000000
     21739       176  DOPE      H11B          -37.7055018085       -2.1828276217      -18.6030988447  MEMB      176             0.0000000000
     21740       176  DOPE      P             -38.7596096291        0.0906024783      -19.9285510471  MEMB      176             0.0000000000
     21741       176  DOPE      O13           -39.6836870884       -1.0577389154      -19.8143367366  MEMB      176             0.0000000000
     21742       176  DOPE      O14           -38.8778476994        0.9745551762      -21.1064031349  MEMB      176             0.0000000000
     21743       176  DOPE      O11           -38.7824249051        0.9194670245      -18.5818947546  MEMB      176             0.0000000000
     21744       176  DOPE      O12           -37.2706563588       -0.4679092364      -19.8250199514  MEMB      176             0.0000000000
     21745       176  DOPE      C1            -37.9879995647        2.0909786103      -18.3869044164  MEMB      176             0.0000000000
     21746       176  DOPE      HA            -38.6439653969        2.9691297008      -18.5839702446  MEMB      176             0.0000000000
     21747       176  DOPE      HB            -37.1161103929        2.1438619203      -19.0789003473  MEMB      176             0.0000000000
     21748       176  DOPE      C2            -37.4453641753        2.2026035412      -16.9257769188  MEMB      176             0.0000000000
     21749       176  DOPE      HS            -36.9234817698        3.1817801855      -16.8243881362  MEMB      176             0.0000000000
     21750       176  DOPE      O21           -36.5012609784        1.1359252088      -16.7005358171  MEMB      176             0.0000000000
     21751       176  DOPE      C21           -36.1648203949        0.9066739472      -15.4387840989  MEMB      176             0.0000000000
     21752       176  DOPE      O22           -36.3880791073        1.6472440373      -14.5046659943  MEMB      176             0.0000000000
     21753       176  DOPE      C22           -35.3402473364       -0.3623301295      -15.3547694871  MEMB      176             0.0000000000
     21754       176  DOPE      H2R           -35.4053763841       -0.9302665807      -16.2955834847  MEMB      176             0.0000000000
     21755       176  DOPE      H2S           -35.7311031534       -1.0069421201      -14.5513742784  MEMB      176             0.0000000000
     21756       176  DOPE      C3            -38.6479591221        2.1753669857      -15.9253585846  MEMB      176             0.0000000000
     21757       176  DOPE      HX            -39.3676217218        2.8807715884      -16.3717776579  MEMB      176             0.0000000000
     21758       176  DOPE      HY            -38.3789557777        2.6001245889      -14.9328175279  MEMB      176             0.0000000000
     21759       176  DOPE      O31           -39.3004129550        0.9014607921      -15.8445639103  MEMB      176             0.0000000000
     21760       176  DOPE      C31           -39.3105410288        0.2350690072      -14.7150149221  MEMB      176             0.0000000000
     21761       176  DOPE      O32           -38.8681805741        0.5987616464      -13.6422756792  MEMB      176             0.0000000000
     21762       176  DOPE      C32           -40.0464244122       -1.0655618944      -14.9868247222  MEMB      176             0.0000000000
     21763       176  DOPE      H2X           -41.1264860339       -0.8640475047      -14.8465343675  MEMB      176             0.0000000000
     21764       176  DOPE      H2Y           -39.8733692785       -1.3700141819      -16.0431113941  MEMB      176             0.0000000000
     21765       176  DOPE      C23           -33.9042557155        0.0528340837      -15.0386501266  MEMB      176             0.0000000000
     21766       176  DOPE      H3R           -33.5769372288        0.8082959877      -15.7910202683  MEMB      176             0.0000000000
     21767       176  DOPE      H3S           -33.2235131979       -0.7986050868      -15.1606371161  MEMB      176             0.0000000000
     21768       176  DOPE      C24           -33.7157325341        0.6616754828      -13.6408180793  MEMB      176             0.0000000000
     21769       176  DOPE      H4R           -34.2723499542        1.5986715622      -13.5824749921  MEMB      176             0.0000000000
     21770       176  DOPE      H4S           -32.6561885489        0.9750812099      -13.5807171986  MEMB      176             0.0000000000
     21771       176  DOPE      C25           -34.0889062138       -0.1495803560      -12.3842296550  MEMB      176             0.0000000000
     21772       176  DOPE      H5R           -33.3515308091        0.1044572303      -11.5873652709  MEMB      176             0.0000000000
     21773       176  DOPE      H5S           -33.9949137397       -1.2385917060      -12.5820748346  MEMB      176             0.0000000000
     21774       176  DOPE      C26           -35.4667483673        0.2037370063      -11.7940367731  MEMB      176             0.0000000000
     21775       176  DOPE      H6R           -35.6140521977       -0.3786114196      -10.8601752502  MEMB      176             0.0000000000
     21776       176  DOPE      H6S           -36.2383441803       -0.1178311455      -12.5306847352  MEMB      176             0.0000000000
     21777       176  DOPE      C27           -35.7216368537        1.6925154542      -11.4713250075  MEMB      176             0.0000000000
     21778       176  DOPE      H7R           -36.7216397867        1.9687698725      -11.8812674683  MEMB      176             0.0000000000
     21779       176  DOPE      H7S           -34.9740193967        2.3383625273      -11.9719053440  MEMB      176             0.0000000000
     21780       176  DOPE      C28           -35.6704433064        2.0286326601       -9.9764967915  MEMB      176             0.0000000000
     21781       176  DOPE      H8R           -34.7113952711        1.6192893229       -9.5871302027  MEMB      176             0.0000000000
     21782       176  DOPE      H8S           -36.4824741008        1.4961836786       -9.4550639597  MEMB      176             0.0000000000
     21783       176  DOPE      C29           -35.7973822424        3.5170196055       -9.7572209186  MEMB      176             0.0000000000
     21784       176  DOPE      H9R           -35.4662103680        4.1378567774      -10.6087334970  MEMB      176             0.0000000000
     21785       176  DOPE      C210          -36.3501900914        4.1126571422       -8.6823696078  MEMB      176             0.0000000000
     21786       176  DOPE      H10R          -36.2937575543        5.2076866968       -8.6025672130  MEMB      176             0.0000000000
     21787       176  DOPE      C211          -36.9581642430        3.4470143490       -7.4690826242  MEMB      176             0.0000000000
     21788       176  DOPE      H11R          -37.6658001319        2.6348595070       -7.7511526707  MEMB      176             0.0000000000
     21789       176  DOPE      H11S          -37.5726105866        4.1934164386       -6.9158919275  MEMB      176             0.0000000000
     21790       176  DOPE      C212          -35.9354845169        2.9035197370       -6.4459499224  MEMB      176             0.0000000000
     21791       176  DOPE      H12R          -35.2713348058        3.7349019844       -6.1509906711  MEMB      176             0.0000000000
     21792       176  DOPE      H12S          -35.3126779582        2.1132134938       -6.9120210694  MEMB      176             0.0000000000
     21793       176  DOPE      C213          -36.6644679579        2.3821196331       -5.1991434624  MEMB      176             0.0000000000
     21794       176  DOPE      H13R          -37.2415105936        1.4839080313       -5.5041607361  MEMB      176             0.0000000000
     21795       176  DOPE      H13S          -37.4054203229        3.1561112080       -4.9175128986  MEMB      176             0.0000000000
     21796       176  DOPE      C214          -35.8751040610        1.9927558167       -3.9304326848  MEMB      176             0.0000000000
     21797       176  DOPE      H14R          -35.0530711643        1.2824238241       -4.1234469753  MEMB      176             0.0000000000
     21798       176  DOPE      H14S          -36.6336944918        1.4809325521       -3.3046887962  MEMB      176             0.0000000000
     21799       176  DOPE      C215          -35.2857371514        3.1151239620       -3.0866599403  MEMB      176             0.0000000000
     21800       176  DOPE      H15R          -35.5813449322        4.0807588569       -3.5548822127  MEMB      176             0.0000000000
     21801       176  DOPE      H15S          -34.1745112817        3.0561626718       -3.1341144040  MEMB      176             0.0000000000
     21802       176  DOPE      C216          -35.7120099425        3.1919267378       -1.5988753276  MEMB      176             0.0000000000
     21803       176  DOPE      H16R          -36.6018662823        3.8567640181       -1.5647825376  MEMB      176             0.0000000000
     21804       176  DOPE      H16S          -34.9256215106        3.8221083516       -1.1868767827  MEMB      176             0.0000000000
     21805       176  DOPE      C217          -36.1185413148        1.9327913987       -0.7476195675  MEMB      176             0.0000000000
     21806       176  DOPE      H17R          -36.5346485840        1.1433871554       -1.3929000431  MEMB      176             0.0000000000
     21807       176  DOPE      H17S          -36.9505214826        2.3120103468       -0.1220698877  MEMB      176             0.0000000000
     21808       176  DOPE      C218          -35.2951711879        1.2392903460        0.3514178596  MEMB      176             0.0000000000
     21809       176  DOPE      H18R          -34.3526232220        0.8114800609       -0.0393882191  MEMB      176             0.0000000000
     21810       176  DOPE      H18S          -35.8783324920        0.4138135908        0.8125648916  MEMB      176             0.0000000000
     21811       176  DOPE      H18T          -35.0453191446        1.9464314366        1.1640457181  MEMB      176             0.0000000000
     21812       176  DOPE      C33           -39.5811066343       -2.1659389622      -14.0309944321  MEMB      176             0.0000000000
     21813       176  DOPE      H3X           -40.2017788684       -3.0711694430      -14.1999957281  MEMB      176             0.0000000000
     21814       176  DOPE      H3Y           -39.7150002301       -1.8452510168      -12.9730015578  MEMB      176             0.0000000000
     21815       176  DOPE      C34           -38.1255767799       -2.5559469991      -14.2751639680  MEMB      176             0.0000000000
     21816       176  DOPE      H4X           -37.9545513581       -2.7625684737      -15.3577623773  MEMB      176             0.0000000000
     21817       176  DOPE      H4Y           -37.4646451356       -1.7251671868      -13.9670238231  MEMB      176             0.0000000000
     21818       176  DOPE      C35           -37.7792534040       -3.8009267551      -13.4891672254  MEMB      176             0.0000000000
     21819       176  DOPE      H5X           -36.7881441157       -4.2082468816      -13.7951413746  MEMB      176             0.0000000000
     21820       176  DOPE      H5Y           -38.5713667983       -4.5332178469      -13.7591566115  MEMB      176             0.0000000000
     21821       176  DOPE      C36           -37.8217556315       -3.6348604343      -11.9766836929  MEMB      176             0.0000000000
     21822       176  DOPE      H6X           -37.4826096947       -4.5778038163      -11.5212048979  MEMB      176             0.0000000000
     21823       176  DOPE      H6Y           -38.8506689466       -3.4207577768      -11.6142652091  MEMB      176             0.0000000000
     21824       176  DOPE      C37           -36.8629698474       -2.6147696743      -11.4001328567  MEMB      176             0.0000000000
     21825       176  DOPE      H7X           -35.8931090165       -2.6480402571      -11.9476847880  MEMB      176             0.0000000000
     21826       176  DOPE      H7Y           -37.3102484778       -1.6038400859      -11.5167479033  MEMB      176             0.0000000000
     21827       176  DOPE      C38           -36.5797600605       -2.9182880823       -9.9232008736  MEMB      176             0.0000000000
     21828       176  DOPE      H8X           -35.8466425258       -2.1557686959       -9.5970239223  MEMB      176             0.0000000000
     21829       176  DOPE      H8Y           -36.0419788665       -3.8703323471       -9.8434631245  MEMB      176             0.0000000000
     21830       176  DOPE      C39           -37.8280274121       -2.9875904537       -9.0725748385  MEMB      176             0.0000000000
     21831       176  DOPE      H9X           -38.3542382235       -3.9543697349       -9.0498842033  MEMB      176             0.0000000000
     21832       176  DOPE      C310          -38.2751899833       -1.9667117496       -8.3329149259  MEMB      176             0.0000000000
     21833       176  DOPE      H10X          -39.1566028843       -2.0754470914       -7.6813002883  MEMB      176             0.0000000000
     21834       176  DOPE      C311          -37.5445488851       -0.6579779069       -8.2971870059  MEMB      176             0.0000000000
     21835       176  DOPE      H11X          -37.2207391631       -0.3836147441       -9.3253270157  MEMB      176             0.0000000000
     21836       176  DOPE      H11Y          -38.1987050678        0.1694157715       -7.9473067424  MEMB      176             0.0000000000
     21837       176  DOPE      C312          -36.3098058959       -0.7933093527       -7.3877679155  MEMB      176             0.0000000000
     21838       176  DOPE      H12X          -35.7822280924        0.1798045974       -7.3527259213  MEMB      176             0.0000000000
     21839       176  DOPE      H12Y          -35.5712264964       -1.5243093107       -7.7758733998  MEMB      176             0.0000000000
     21840       176  DOPE      C313          -36.6753360144       -1.2491858116       -5.9782113404  MEMB      176             0.0000000000
     21841       176  DOPE      H13X          -37.4760651253       -0.5799211702       -5.5940393497  MEMB      176             0.0000000000
     21842       176  DOPE      H13Y          -37.0923785226       -2.2818996965       -5.9854138284  MEMB      176             0.0000000000
     21843       176  DOPE      C314          -35.4793041875       -1.2272919936       -5.0315068661  MEMB      176             0.0000000000
     21844       176  DOPE      H14X          -34.9001053026       -0.3014758032       -5.2155096361  MEMB      176             0.0000000000
     21845       176  DOPE      H14Y          -34.7927469779       -2.0722198411       -5.2543423854  MEMB      176             0.0000000000
     21846       176  DOPE      C315          -36.0022527915       -1.3228401068       -3.5974918218  MEMB      176             0.0000000000
     21847       176  DOPE      H15X          -36.5378597265       -2.2930789119       -3.5264664855  MEMB      176             0.0000000000
     21848       176  DOPE      H15Y          -36.7675791867       -0.5392516749       -3.4167957944  MEMB      176             0.0000000000
     21849       176  DOPE      C316          -34.9499153756       -1.2385829299       -2.4928186342  MEMB      176             0.0000000000
     21850       176  DOPE      H16X          -34.5249793163       -0.2114722325       -2.4291580176  MEMB      176             0.0000000000
     21851       176  DOPE      H16Y          -34.1176418648       -1.9352550654       -2.7341884015  MEMB      176             0.0000000000
     21852       176  DOPE      C317          -35.5543386591       -1.6474451810       -1.1445698230  MEMB      176             0.0000000000
     21853       176  DOPE      H17X          -34.8605866708       -1.3912391425       -0.3174598256  MEMB      176             0.0000000000
     21854       176  DOPE      H17Y          -36.4890639247       -1.0690792048       -0.9599549370  MEMB      176             0.0000000000
     21855       176  DOPE      C318          -35.8271209870       -3.1461061085       -1.0881844488  MEMB      176             0.0000000000
     21856       176  DOPE      H18X          -34.9675504639       -3.7018272853       -1.5198318486  MEMB      176             0.0000000000
     21857       176  DOPE      H18Y          -35.9664154739       -3.4897680682       -0.0446090850  MEMB      176             0.0000000000
     21858       176  DOPE      H18Z          -36.7368248777       -3.3940986904       -1.6755449787  MEMB      176             0.0000000000
     21859       177  DOPC      N              11.2430862682       34.4411209222      -17.8946527368  MEMB      177             0.0000000000
     21860       177  DOPC      C12            10.8201663074       35.8285034564      -18.3423534969  MEMB      177             0.0000000000
     21861       177  DOPC      H12A           11.3258644377       36.5451188878      -17.6891282114  MEMB      177             0.0000000000
     21862       177  DOPC      H12B            9.7549577577       35.9507162381      -18.1863677787  MEMB      177             0.0000000000
     21863       177  DOPC      C13            10.9974705428       34.2217862620      -16.4386676846  MEMB      177             0.0000000000
     21864       177  DOPC      H13A            9.9306879182       34.1655763439      -16.2486927497  MEMB      177             0.0000000000
     21865       177  DOPC      H13B           11.4322416126       33.2829054360      -16.1222646893  MEMB      177             0.0000000000
     21866       177  DOPC      H13C           11.4073516214       35.0319800708      -15.8420734899  MEMB      177             0.0000000000
     21867       177  DOPC      C14            12.6922950940       34.3340245062      -18.2060736738  MEMB      177             0.0000000000
     21868       177  DOPC      H14A           12.8277845505       34.5872562423      -19.2677883769  MEMB      177             0.0000000000
     21869       177  DOPC      H14B           13.2849392900       35.0686624531      -17.6735239958  MEMB      177             0.0000000000
     21870       177  DOPC      H14C           13.0546631900       33.3339913831      -18.0446140890  MEMB      177             0.0000000000
     21871       177  DOPC      C15            10.5190679915       33.3734802260      -18.6777912136  MEMB      177             0.0000000000
     21872       177  DOPC      H15A            9.4651337173       33.3075972187      -18.4154423353  MEMB      177             0.0000000000
     21873       177  DOPC      H15B           10.9283820419       32.3789766234      -18.5147915111  MEMB      177             0.0000000000
     21874       177  DOPC      H15C           10.5883631987       33.5764150142      -19.7409412335  MEMB      177             0.0000000000
     21875       177  DOPC      C11            11.1442882627       36.2456699473      -19.8166522103  MEMB      177             0.0000000000
     21876       177  DOPC      H11A           10.6591818919       35.5428275516      -20.5256998551  MEMB      177             0.0000000000
     21877       177  DOPC      H11B           10.6684446181       37.2404111650      -20.0003610658  MEMB      177             0.0000000000
     21878       177  DOPC      P              13.3476008577       37.6106796228      -19.8308898515  MEMB      177             0.0000000000
     21879       177  DOPC      O13            12.8950143504       38.6565817648      -20.7748590678  MEMB      177             0.0000000000
     21880       177  DOPC      O14            14.7998071157       37.3809493270      -19.7058582627  MEMB      177             0.0000000000
     21881       177  DOPC      O12            12.5452363798       36.2775601975      -20.1279789802  MEMB      177             0.0000000000
     21882       177  DOPC      O11            12.7957137785       37.9606810545      -18.3925000961  MEMB      177             0.0000000000
     21883       177  DOPC      C1             13.3733326793       39.0447021741      -17.6580749767  MEMB      177             0.0000000000
     21884       177  DOPC      HA             13.2510338810       40.0086375025      -18.2077387620  MEMB      177             0.0000000000
     21885       177  DOPC      HB             14.4622611054       38.8866967768      -17.4863430147  MEMB      177             0.0000000000
     21886       177  DOPC      C2             12.6351958734       39.1839232788      -16.3032302360  MEMB      177             0.0000000000
     21887       177  DOPC      HS             13.0123736267       40.0863839223      -15.7653790900  MEMB      177             0.0000000000
     21888       177  DOPC      O21            12.7945644703       38.0137115715      -15.4823883721  MEMB      177             0.0000000000
     21889       177  DOPC      C21            13.9876569583       37.7772687583      -14.9993299748  MEMB      177             0.0000000000
     21890       177  DOPC      O22            14.9826586800       38.4686473091      -15.1475407653  MEMB      177             0.0000000000
     21891       177  DOPC      C22            13.9260269884       36.4548650846      -14.2202994090  MEMB      177             0.0000000000
     21892       177  DOPC      H2R            14.4832444053       35.7047567105      -14.8147238290  MEMB      177             0.0000000000
     21893       177  DOPC      H2S            12.8693341017       36.1230316769      -14.1413735920  MEMB      177             0.0000000000
     21894       177  DOPC      C3             11.1157432229       39.3910032341      -16.5662144403  MEMB      177             0.0000000000
     21895       177  DOPC      HX             10.7518470333       38.6263536301      -17.2920862667  MEMB      177             0.0000000000
     21896       177  DOPC      HY             10.9914468304       40.3715203314      -17.0723817275  MEMB      177             0.0000000000
     21897       177  DOPC      O31            10.3653947958       39.3912787623      -15.3353922485  MEMB      177             0.0000000000
     21898       177  DOPC      C31             9.9697468056       38.1832594047      -14.9061892132  MEMB      177             0.0000000000
     21899       177  DOPC      O32            10.0407356150       37.1521627487      -15.5532115572  MEMB      177             0.0000000000
     21900       177  DOPC      C32             9.4202288960       38.3648175784      -13.4907191266  MEMB      177             0.0000000000
     21901       177  DOPC      H2X            10.2548994005       38.7150955303      -12.8480141214  MEMB      177             0.0000000000
     21902       177  DOPC      H2Y             8.6801464359       39.1886149394      -13.5456892879  MEMB      177             0.0000000000
     21903       177  DOPC      C23            14.5190891641       36.5400567677      -12.7913881105  MEMB      177             0.0000000000
     21904       177  DOPC      H3R            15.4820942308       37.0962325574      -12.7814212289  MEMB      177             0.0000000000
     21905       177  DOPC      H3S            14.7384626561       35.5015271279      -12.4463604904  MEMB      177             0.0000000000
     21906       177  DOPC      C24            13.5361458001       37.1529130775      -11.7794799230  MEMB      177             0.0000000000
     21907       177  DOPC      H4R            12.5842111223       36.5776161762      -11.8265911246  MEMB      177             0.0000000000
     21908       177  DOPC      H4S            13.3102514258       38.2055256438      -12.0578079904  MEMB      177             0.0000000000
     21909       177  DOPC      C25            14.0624115957       37.1186740336      -10.3352305493  MEMB      177             0.0000000000
     21910       177  DOPC      H5R            15.0188343448       37.6866951885      -10.2832975472  MEMB      177             0.0000000000
     21911       177  DOPC      H5S            14.2833109383       36.0636929471      -10.0582763168  MEMB      177             0.0000000000
     21912       177  DOPC      C26            13.0826921322       37.7052964378       -9.3031143226  MEMB      177             0.0000000000
     21913       177  DOPC      H6R            12.9719528723       38.7988020303       -9.4720220737  MEMB      177             0.0000000000
     21914       177  DOPC      H6S            13.5231976369       37.5728875141       -8.2878025569  MEMB      177             0.0000000000
     21915       177  DOPC      C27            11.6870779416       37.0553078634       -9.3252629804  MEMB      177             0.0000000000
     21916       177  DOPC      H7R            11.8159100797       35.9491332935       -9.3041619473  MEMB      177             0.0000000000
     21917       177  DOPC      H7S            11.1582226015       37.3063547835      -10.2704328068  MEMB      177             0.0000000000
     21918       177  DOPC      C28            10.8125530497       37.4529709780       -8.1210956338  MEMB      177             0.0000000000
     21919       177  DOPC      H8R            11.3681605480       37.1608637042       -7.2015354954  MEMB      177             0.0000000000
     21920       177  DOPC      H8S             9.8840421895       36.8402414308       -8.1384301775  MEMB      177             0.0000000000
     21921       177  DOPC      C29            10.4521046766       38.9180065619       -8.1402118697  MEMB      177             0.0000000000
     21922       177  DOPC      H9R            10.1445660739       39.3131352366       -9.1195814443  MEMB      177             0.0000000000
     21923       177  DOPC      C210           10.4900192762       39.7561945735       -7.0922777997  MEMB      177             0.0000000000
     21924       177  DOPC      H10R           10.2318100957       40.8164450147       -7.2457439401  MEMB      177             0.0000000000
     21925       177  DOPC      C211           10.8985374634       39.3937991722       -5.6886604854  MEMB      177             0.0000000000
     21926       177  DOPC      H11R           10.9183094444       38.2932283312       -5.5267930602  MEMB      177             0.0000000000
     21927       177  DOPC      H11S           10.1603586361       39.7843363841       -4.9616273814  MEMB      177             0.0000000000
     21928       177  DOPC      C212           12.2908613255       39.9537349506       -5.3572139728  MEMB      177             0.0000000000
     21929       177  DOPC      H12R           12.2491859919       41.0643833315       -5.2953474862  MEMB      177             0.0000000000
     21930       177  DOPC      H12S           12.9967516273       39.6809837663       -6.1754987739  MEMB      177             0.0000000000
     21931       177  DOPC      C213           12.8476177528       39.3870927161       -4.0459155417  MEMB      177             0.0000000000
     21932       177  DOPC      H13R           13.9357701817       39.6083828406       -3.9786660072  MEMB      177             0.0000000000
     21933       177  DOPC      H13S           12.7270006391       38.2794891113       -4.0502899864  MEMB      177             0.0000000000
     21934       177  DOPC      C214           12.1529573374       39.9654875976       -2.8101390111  MEMB      177             0.0000000000
     21935       177  DOPC      H14R           11.0565598282       39.8103472038       -2.9144989716  MEMB      177             0.0000000000
     21936       177  DOPC      H14S           12.3369019059       41.0616681393       -2.7567651702  MEMB      177             0.0000000000
     21937       177  DOPC      C215           12.6378979296       39.3035284689       -1.5154715425  MEMB      177             0.0000000000
     21938       177  DOPC      H15R           13.7436003526       39.3933636289       -1.4439752375  MEMB      177             0.0000000000
     21939       177  DOPC      H15S           12.3905375326       38.2197750045       -1.5602379507  MEMB      177             0.0000000000
     21940       177  DOPC      C216           11.9874840044       39.8937884700       -0.2602853802  MEMB      177             0.0000000000
     21941       177  DOPC      H16R           12.2724272811       40.9636441247       -0.1483475382  MEMB      177             0.0000000000
     21942       177  DOPC      H16S           12.3722333829       39.3441646626        0.6296778230  MEMB      177             0.0000000000
     21943       177  DOPC      C217           10.4621544953       39.7631887386       -0.2979382838  MEMB      177             0.0000000000
     21944       177  DOPC      H17R           10.2055480084       38.7276212945       -0.6138595967  MEMB      177             0.0000000000
     21945       177  DOPC      H17S           10.0419658379       40.4556596462       -1.0614881233  MEMB      177             0.0000000000
     21946       177  DOPC      C218            9.8031275049       40.0483166576        1.0415021880  MEMB      177             0.0000000000
     21947       177  DOPC      H18R           10.3195503701       39.5185017454        1.8686057212  MEMB      177             0.0000000000
     21948       177  DOPC      H18S            8.7433325613       39.7206466097        1.0216058969  MEMB      177             0.0000000000
     21949       177  DOPC      H18T            9.8412716708       41.1374477498        1.2508052824  MEMB      177             0.0000000000
     21950       177  DOPC      C33             8.7655615573       37.1276125688      -12.8289273664  MEMB      177             0.0000000000
     21951       177  DOPC      H3X             9.5623246578       36.4455373349      -12.4560261358  MEMB      177             0.0000000000
     21952       177  DOPC      H3Y             8.1369277429       36.5611197702      -13.5511276727  MEMB      177             0.0000000000
     21953       177  DOPC      C34             7.8912726698       37.5666242651      -11.6403674762  MEMB      177             0.0000000000
     21954       177  DOPC      H4X             6.8895756573       37.8934895706      -11.9853725056  MEMB      177             0.0000000000
     21955       177  DOPC      H4Y             8.3932655193       38.4364081408      -11.1538473438  MEMB      177             0.0000000000
     21956       177  DOPC      C35             7.6922305720       36.5201296007      -10.5481949280  MEMB      177             0.0000000000
     21957       177  DOPC      H5X             7.1065706809       36.9759707405       -9.7164535676  MEMB      177             0.0000000000
     21958       177  DOPC      H5Y             8.7082525247       36.2957033020      -10.1643428476  MEMB      177             0.0000000000
     21959       177  DOPC      C36             6.9799291907       35.2384958822      -11.0031944447  MEMB      177             0.0000000000
     21960       177  DOPC      H6X             5.9578162065       35.4942824959      -11.3665157314  MEMB      177             0.0000000000
     21961       177  DOPC      H6Y             7.5371054538       34.7857153604      -11.8511705380  MEMB      177             0.0000000000
     21962       177  DOPC      C37             6.8627221138       34.1948650620       -9.8770256811  MEMB      177             0.0000000000
     21963       177  DOPC      H7X             6.2054949592       34.6178948967       -9.0827974872  MEMB      177             0.0000000000
     21964       177  DOPC      H7Y             6.3588712454       33.2840611082      -10.2721771862  MEMB      177             0.0000000000
     21965       177  DOPC      C38             8.2281443992       33.8090536791       -9.2697966536  MEMB      177             0.0000000000
     21966       177  DOPC      H8X             8.7835901772       34.7262808827       -8.9907703504  MEMB      177             0.0000000000
     21967       177  DOPC      H8Y             8.8436345120       33.3079568505      -10.0484555220  MEMB      177             0.0000000000
     21968       177  DOPC      C39             8.1239942851       32.9532348013       -8.0391588606  MEMB      177             0.0000000000
     21969       177  DOPC      H9X             8.1710349484       31.8712236757       -8.2167954463  MEMB      177             0.0000000000
     21970       177  DOPC      C310            7.9811431687       33.4352777053       -6.7896740537  MEMB      177             0.0000000000
     21971       177  DOPC      H10X            7.9383629120       32.7384758816       -5.9388950742  MEMB      177             0.0000000000
     21972       177  DOPC      C311            7.8984265266       34.9039484720       -6.4431582935  MEMB      177             0.0000000000
     21973       177  DOPC      H11X            7.5434143847       35.4998042755       -7.3162482472  MEMB      177             0.0000000000
     21974       177  DOPC      H11Y            8.9057300236       35.2941599340       -6.1932837975  MEMB      177             0.0000000000
     21975       177  DOPC      C312            6.9273194166       35.2078911640       -5.2859514452  MEMB      177             0.0000000000
     21976       177  DOPC      H12X            5.9731197839       34.6607090442       -5.4633779513  MEMB      177             0.0000000000
     21977       177  DOPC      H12Y            6.6816051787       36.2944908474       -5.3015899088  MEMB      177             0.0000000000
     21978       177  DOPC      C313            7.4645212365       34.8529804276       -3.8877221138  MEMB      177             0.0000000000
     21979       177  DOPC      H13X            6.5719724772       34.6737640572       -3.2413537550  MEMB      177             0.0000000000
     21980       177  DOPC      H13Y            8.0475896266       33.9097093541       -3.9013250996  MEMB      177             0.0000000000
     21981       177  DOPC      C314            8.2622240502       35.9863550393       -3.2193250454  MEMB      177             0.0000000000
     21982       177  DOPC      H14X            7.7994134730       36.9640055896       -3.4817640519  MEMB      177             0.0000000000
     21983       177  DOPC      H14Y            8.1617788086       35.8725003242       -2.1164554407  MEMB      177             0.0000000000
     21984       177  DOPC      C315            9.7643901778       36.0436927293       -3.5486574294  MEMB      177             0.0000000000
     21985       177  DOPC      H15X           10.1508143437       36.9611928650       -3.0446547334  MEMB      177             0.0000000000
     21986       177  DOPC      H15Y            9.9357547821       36.1977084837       -4.6325271525  MEMB      177             0.0000000000
     21987       177  DOPC      C316           10.5823647237       34.8361076941       -3.0513761985  MEMB      177             0.0000000000
     21988       177  DOPC      H16X           10.0263253041       34.3347156039       -2.2279124392  MEMB      177             0.0000000000
     21989       177  DOPC      H16Y           10.7003811702       34.0823881471       -3.8601377780  MEMB      177             0.0000000000
     21990       177  DOPC      C317           11.9534771295       35.2848564096       -2.5164673529  MEMB      177             0.0000000000
     21991       177  DOPC      H17X           12.6035432466       35.5774268121       -3.3700023108  MEMB      177             0.0000000000
     21992       177  DOPC      H17Y           11.7841953849       36.1946995514       -1.8966798636  MEMB      177             0.0000000000
     21993       177  DOPC      C318           12.6767291064       34.2733733891       -1.6285227864  MEMB      177             0.0000000000
     21994       177  DOPC      H18X           13.0449054778       33.4073872703       -2.2164920082  MEMB      177             0.0000000000
     21995       177  DOPC      H18Y           13.5442951394       34.7459604764       -1.1186776201  MEMB      177             0.0000000000
     21996       177  DOPC      H18Z           11.9842622026       33.9044341541       -0.8408229347  MEMB      177             0.0000000000
     21997       178  23SM      N               4.4090660395      -39.3423456117      -27.7673891724  MEMB      178             0.0000000000
     21998       178  23SM      C15             2.9634137937      -39.0061157426      -27.6055937663  MEMB      178             0.0000000000
     21999       178  23SM      H15A            2.4837447187      -38.6294395947      -28.5024388532  MEMB      178             0.0000000000
     22000       178  23SM      H15B            2.8784216112      -38.2436549332      -26.8285501533  MEMB      178             0.0000000000
     22001       178  23SM      H15C            2.4317120224      -39.8899695554      -27.2828110570  MEMB      178             0.0000000000
     22002       178  23SM      C14             4.5197427273      -40.5027736178      -28.6826706377  MEMB      178             0.0000000000
     22003       178  23SM      H14A            4.0044995063      -41.3714034540      -28.2832413880  MEMB      178             0.0000000000
     22004       178  23SM      H14B            5.5566455758      -40.8004151985      -28.8500426011  MEMB      178             0.0000000000
     22005       178  23SM      H14C            4.1062920620      -40.2780219604      -29.6560870185  MEMB      178             0.0000000000
     22006       178  23SM      C13             5.0672750311      -38.1030671964      -28.2790439916  MEMB      178             0.0000000000
     22007       178  23SM      H13A            4.6980820036      -37.7806817331      -29.2412681119  MEMB      178             0.0000000000
     22008       178  23SM      H13B            6.1429834227      -38.1952566742      -28.3273385040  MEMB      178             0.0000000000
     22009       178  23SM      H13C            4.8783518418      -37.2932299912      -27.5659288273  MEMB      178             0.0000000000
     22010       178  23SM      C12             4.9794175189      -39.6995562766      -26.4022467457  MEMB      178             0.0000000000
     22011       178  23SM      H12A            6.0437300098      -39.4565934446      -26.3395134033  MEMB      178             0.0000000000
     22012       178  23SM      H12B            4.9187371990      -40.7801967041      -26.2736889308  MEMB      178             0.0000000000
     22013       178  23SM      C11             4.2669424751      -39.0896116087      -25.1681580117  MEMB      178             0.0000000000
     22014       178  23SM      H11A            4.8043935505      -39.3801068425      -24.2337234446  MEMB      178             0.0000000000
     22015       178  23SM      H11B            3.2817026895      -39.5883595403      -25.1016326601  MEMB      178             0.0000000000
     22016       178  23SM      P               5.1388372269      -36.6720074528      -24.7407841601  MEMB      178             0.0000000000
     22017       178  23SM      O13             6.4500663186      -37.0553041304      -25.3086580997  MEMB      178             0.0000000000
     22018       178  23SM      O14             4.6614178811      -35.2939852855      -25.0053272091  MEMB      178             0.0000000000
     22019       178  23SM      O11             5.0496532864      -37.0121050492      -23.1467844364  MEMB      178             0.0000000000
     22020       178  23SM      O12             4.0587622928      -37.6843007460      -25.2798527538  MEMB      178             0.0000000000
     22021       178  23SM      C1S             3.7011776370      -36.9297143781      -22.6193757506  MEMB      178             0.0000000000
     22022       178  23SM      H1S             3.0928808627      -37.7770816317      -23.0029803961  MEMB      178             0.0000000000
     22023       178  23SM      H1T             3.1861367317      -35.9847305385      -22.9247058927  MEMB      178             0.0000000000
     22024       178  23SM      NF              4.0435297117      -35.7974173658      -20.4238079994  MEMB      178             0.0000000000
     22025       178  23SM      HNF             4.9297080562      -35.8587829372      -19.9833021084  MEMB      178             0.0000000000
     22026       178  23SM      C2S             3.5741890438      -37.0258582012      -21.0628399695  MEMB      178             0.0000000000
     22027       178  23SM      H2S             2.4917849500      -37.1444737521      -20.8292703540  MEMB      178             0.0000000000
     22028       178  23SM      C3S             4.3274087307      -38.2552300402      -20.4892126754  MEMB      178             0.0000000000
     22029       178  23SM      H3S             5.4184585530      -38.1666257736      -20.6760771933  MEMB      178             0.0000000000
     22030       178  23SM      O3              3.9115388497      -39.5113792231      -21.0260355692  MEMB      178             0.0000000000
     22031       178  23SM      HO3             3.3555890739      -39.2949060064      -21.7814260827  MEMB      178             0.0000000000
     22032       178  23SM      C4S             4.0634340231      -38.2364419368      -18.9988706491  MEMB      178             0.0000000000
     22033       178  23SM      H4S             3.0874465337      -38.6573960930      -18.7157076174  MEMB      178             0.0000000000
     22034       178  23SM      C5S             4.9093344944      -37.7525129138      -18.0624602675  MEMB      178             0.0000000000
     22035       178  23SM      H5S             5.8915805474      -37.3761523293      -18.3899172726  MEMB      178             0.0000000000
     22036       178  23SM      C6S             4.6718184411      -37.7017486130      -16.5713404999  MEMB      178             0.0000000000
     22037       178  23SM      H6S             4.0652788856      -38.5664477311      -16.2184845580  MEMB      178             0.0000000000
     22038       178  23SM      H6T             4.1046711694      -36.7779466024      -16.3110645050  MEMB      178             0.0000000000
     22039       178  23SM      C7S             6.0003571898      -37.6671514862      -15.7888186189  MEMB      178             0.0000000000
     22040       178  23SM      H7S             6.6636031923      -36.8521423061      -16.1396429134  MEMB      178             0.0000000000
     22041       178  23SM      H7T             6.5273405483      -38.6296843980      -15.9913746866  MEMB      178             0.0000000000
     22042       178  23SM      C8S             5.8477964561      -37.5463491276      -14.2621845501  MEMB      178             0.0000000000
     22043       178  23SM      H8S             6.6487706740      -38.1909994371      -13.8476828301  MEMB      178             0.0000000000
     22044       178  23SM      H8T             4.8852367258      -37.9796460598      -13.9159774617  MEMB      178             0.0000000000
     22045       178  23SM      C9S             6.0534457672      -36.1475863826      -13.6403433503  MEMB      178             0.0000000000
     22046       178  23SM      H9S             5.1311373668      -35.5448603740      -13.7904216834  MEMB      178             0.0000000000
     22047       178  23SM      H9T             6.8968838558      -35.6176876667      -14.1322350243  MEMB      178             0.0000000000
     22048       178  23SM      C10S            6.3635340024      -36.2651504437      -12.1333272680  MEMB      178             0.0000000000
     22049       178  23SM      H10S            7.3535550431      -36.7425508635      -11.9922827483  MEMB      178             0.0000000000
     22050       178  23SM      H10T            5.5897873435      -36.9332829278      -11.6871206556  MEMB      178             0.0000000000
     22051       178  23SM      C11S            6.3831448013      -34.9525593835      -11.3411043502  MEMB      178             0.0000000000
     22052       178  23SM      H11S            5.7464468810      -34.2195667954      -11.8770505916  MEMB      178             0.0000000000
     22053       178  23SM      H11T            7.4099955237      -34.5290242015      -11.3124290243  MEMB      178             0.0000000000
     22054       178  23SM      C12S            5.8142017950      -35.1076367306       -9.9158971503  MEMB      178             0.0000000000
     22055       178  23SM      H12S            4.8853171754      -35.7219692144       -9.9402036651  MEMB      178             0.0000000000
     22056       178  23SM      H12T            5.5225563178      -34.0952599824       -9.5531572894  MEMB      178             0.0000000000
     22057       178  23SM      C13S            6.7893308141      -35.7081207735       -8.8953561433  MEMB      178             0.0000000000
     22058       178  23SM      H13S            7.7676488882      -35.1856244506       -8.9972302247  MEMB      178             0.0000000000
     22059       178  23SM      H13T            6.9558517196      -36.7876964314       -9.1057932378  MEMB      178             0.0000000000
     22060       178  23SM      C14S            6.2846739386      -35.5260970456       -7.4544532934  MEMB      178             0.0000000000
     22061       178  23SM      H14S            5.4353565339      -36.2130193316       -7.2543477036  MEMB      178             0.0000000000
     22062       178  23SM      H14T            5.9087271909      -34.4832356131       -7.3393620857  MEMB      178             0.0000000000
     22063       178  23SM      C15S            7.3829013540      -35.7563089685       -6.4145841221  MEMB      178             0.0000000000
     22064       178  23SM      H15S            8.2871208285      -35.1904539414       -6.7374742788  MEMB      178             0.0000000000
     22065       178  23SM      H15T            7.6430274327      -36.8372552588       -6.3723761618  MEMB      178             0.0000000000
     22066       178  23SM      C16S            7.0114939312      -35.2574200862       -5.0156050197  MEMB      178             0.0000000000
     22067       178  23SM      H16S            6.1622516785      -35.8433174004       -4.6085457480  MEMB      178             0.0000000000
     22068       178  23SM      H16T            6.6910644161      -34.1910126108       -5.0818621395  MEMB      178             0.0000000000
     22069       178  23SM      C17S            8.1969777776      -35.3665067259       -4.0559386932  MEMB      178             0.0000000000
     22070       178  23SM      H17S            9.0817480737      -34.8870590140       -4.5391234799  MEMB      178             0.0000000000
     22071       178  23SM      H17T            8.4378879901      -36.4394404531       -3.8855977748  MEMB      178             0.0000000000
     22072       178  23SM      C18S            7.9444622648      -34.6920563429       -2.7162150338  MEMB      178             0.0000000000
     22073       178  23SM      H18S            7.4609069788      -33.7105782305       -2.8961748128  MEMB      178             0.0000000000
     22074       178  23SM      H18T            8.9056322309      -34.5253773639       -2.1809275095  MEMB      178             0.0000000000
     22075       178  23SM      H18U            7.2700896065      -35.2926375462       -2.0710169872  MEMB      178             0.0000000000
     22076       178  23SM      C1F             3.3208183310      -34.6742407540      -20.4632612834  MEMB      178             0.0000000000
     22077       178  23SM      OF              2.2539126234      -34.6049890677      -21.0537512755  MEMB      178             0.0000000000
     22078       178  23SM      C2F             3.8658264817      -33.4962022549      -19.7299718607  MEMB      178             0.0000000000
     22079       178  23SM      H2F             3.4369955014      -32.5900916144      -20.1999793191  MEMB      178             0.0000000000
     22080       178  23SM      H2G             4.9665723276      -33.4689540010      -19.8375265135  MEMB      178             0.0000000000
     22081       178  23SM      C3F             3.4558631447      -33.5699112875      -18.2484717339  MEMB      178             0.0000000000
     22082       178  23SM      H3F             3.7602243890      -34.5564560909      -17.8264204938  MEMB      178             0.0000000000
     22083       178  23SM      H3G             2.3426444456      -33.5205758343      -18.1745730988  MEMB      178             0.0000000000
     22084       178  23SM      C4F             4.0557284759      -32.4571460567      -17.3735906025  MEMB      178             0.0000000000
     22085       178  23SM      H4F             3.4756773572      -31.5184352413      -17.4920851074  MEMB      178             0.0000000000
     22086       178  23SM      H4G             5.1007791646      -32.2574718578      -17.6759485562  MEMB      178             0.0000000000
     22087       178  23SM      C5F             4.0283896566      -32.8298648436      -15.8904085016  MEMB      178             0.0000000000
     22088       178  23SM      H5F             4.5983380171      -32.0945430550      -15.2772449781  MEMB      178             0.0000000000
     22089       178  23SM      H5G             4.5094428543      -33.8250625265      -15.7545379267  MEMB      178             0.0000000000
     22090       178  23SM      C6F             2.6011397565      -32.9029090752      -15.3393705058  MEMB      178             0.0000000000
     22091       178  23SM      H6F             1.8716592755      -33.2252548225      -16.1145189662  MEMB      178             0.0000000000
     22092       178  23SM      H6G             2.2864400753      -31.8900946496      -14.9983146568  MEMB      178             0.0000000000
     22093       178  23SM      C7F             2.4932257204      -33.8776356794      -14.1736840416  MEMB      178             0.0000000000
     22094       178  23SM      H7F             2.8948864020      -34.8755656439      -14.4602312224  MEMB      178             0.0000000000
     22095       178  23SM      H7G             1.4132801801      -33.9984295366      -13.9369442089  MEMB      178             0.0000000000
     22096       178  23SM      C8F             3.2405605748      -33.3804798866      -12.9401739644  MEMB      178             0.0000000000
     22097       178  23SM      H8F             2.8510010411      -32.3840994953      -12.6545305237  MEMB      178             0.0000000000
     22098       178  23SM      H8G             4.3207926632      -33.2521854110      -13.1706247306  MEMB      178             0.0000000000
     22099       178  23SM      C9F             3.0950906297      -34.3315359066      -11.7534923219  MEMB      178             0.0000000000
     22100       178  23SM      H9F             3.5772437209      -33.8439872618      -10.8800864661  MEMB      178             0.0000000000
     22101       178  23SM      H9G             3.6547549043      -35.2692193087      -11.9699989059  MEMB      178             0.0000000000
     22102       178  23SM      C10F            1.6539200202      -34.7244117615      -11.4138669795  MEMB      178             0.0000000000
     22103       178  23SM      H10F            1.2052540872      -35.2746674034      -12.2705148405  MEMB      178             0.0000000000
     22104       178  23SM      H10G            1.0412259633      -33.8164971672      -11.2291672960  MEMB      178             0.0000000000
     22105       178  23SM      C11F            1.6094694874      -35.6501151454      -10.1997155039  MEMB      178             0.0000000000
     22106       178  23SM      H11F            2.3379456315      -36.4771085097      -10.3615944366  MEMB      178             0.0000000000
     22107       178  23SM      H11G            0.5972988808      -36.1051964676      -10.1074257003  MEMB      178             0.0000000000
     22108       178  23SM      C12F            1.9434090628      -34.9174997416       -8.9000819492  MEMB      178             0.0000000000
     22109       178  23SM      H12F            1.0540273994      -34.3154071961       -8.6078079093  MEMB      178             0.0000000000
     22110       178  23SM      H12G            2.7863902168      -34.2072273081       -9.0307067461  MEMB      178             0.0000000000
     22111       178  23SM      C13F            2.3232938644      -35.8856334617       -7.7832515938  MEMB      178             0.0000000000
     22112       178  23SM      H13F            3.3905567135      -36.1769169288       -7.8914658343  MEMB      178             0.0000000000
     22113       178  23SM      H13G            1.7170483693      -36.8124918587       -7.8941499923  MEMB      178             0.0000000000
     22114       178  23SM      C14F            2.0515536269      -35.2807210424       -6.4072599437  MEMB      178             0.0000000000
     22115       178  23SM      H14F            1.0221317686      -34.8501765585       -6.4344426607  MEMB      178             0.0000000000
     22116       178  23SM      H14G            2.7534111445      -34.4428942844       -6.1960822315  MEMB      178             0.0000000000
     22117       178  23SM      C15F            2.0884288612      -36.3281294434       -5.2912027857  MEMB      178             0.0000000000
     22118       178  23SM      H15F            1.5432060985      -37.2420513988       -5.6115652233  MEMB      178             0.0000000000
     22119       178  23SM      H15G            1.5340720047      -35.9062433164       -4.4336958591  MEMB      178             0.0000000000
     22120       178  23SM      C16F            3.4992364668      -36.6909683069       -4.8106886580  MEMB      178             0.0000000000
     22121       178  23SM      H16F            4.0247608513      -35.7519036793       -4.5259226976  MEMB      178             0.0000000000
     22122       178  23SM      H16G            4.0704842772      -37.1629097742       -5.6402117728  MEMB      178             0.0000000000
     22123       178  23SM      C17F            3.4726345948      -37.6362411213       -3.5967296049  MEMB      178             0.0000000000
     22124       178  23SM      H17F            2.9568974916      -38.5749310191       -3.8945391273  MEMB      178             0.0000000000
     22125       178  23SM      H17G            2.8789055983      -37.1677247463       -2.7872277612  MEMB      178             0.0000000000
     22126       178  23SM      C18F            4.8740780493      -37.9676257348       -3.0595213233  MEMB      178             0.0000000000
     22127       178  23SM      H18F            5.3516528675      -37.0482057919       -2.6557432381  MEMB      178             0.0000000000
     22128       178  23SM      H18G            5.4738388432      -38.2889947413       -3.9425700913  MEMB      178             0.0000000000
     22129       178  23SM      C19F            4.9191169945      -39.1082146797       -2.0162001491  MEMB      178             0.0000000000
     22130       178  23SM      H19F            5.8789740407      -39.6471265687       -2.1879931176  MEMB      178             0.0000000000
     22131       178  23SM      H19G            4.1008681752      -39.8394101197       -2.1930750207  MEMB      178             0.0000000000
     22132       178  23SM      C20F            4.9379700267      -38.6646440417       -0.5382030136  MEMB      178             0.0000000000
     22133       178  23SM      H20F            5.4279868013      -37.6713118700       -0.4714702726  MEMB      178             0.0000000000
     22134       178  23SM      H20G            5.5862103414      -39.3576603951        0.0428668958  MEMB      178             0.0000000000
     22135       178  23SM      C21F            3.5538145550      -38.6865332153        0.1335678571  MEMB      178             0.0000000000
     22136       178  23SM      H21F            3.4700489874      -39.5674716191        0.8050525263  MEMB      178             0.0000000000
     22137       178  23SM      H21G            2.7858504499      -38.7994322291       -0.6629394839  MEMB      178             0.0000000000
     22138       178  23SM      C22F            3.2115688566      -37.4268294223        0.9303236487  MEMB      178             0.0000000000
     22139       178  23SM      H22F            3.7830338503      -37.4202055708        1.8828882090  MEMB      178             0.0000000000
     22140       178  23SM      H22G            2.1352505528      -37.4323462397        1.2099098339  MEMB      178             0.0000000000
     22141       178  23SM      C23F            3.5121183698      -36.1675881382        0.1385272670  MEMB      178             0.0000000000
     22142       178  23SM      H23F            4.4330841824      -35.6787579308        0.5170365718  MEMB      178             0.0000000000
     22143       178  23SM      H23G            2.6698087857      -35.4561744565        0.1912070644  MEMB      178             0.0000000000
     22144       178  23SM      H23H            3.6652765247      -36.3984422429       -0.9343500985  MEMB      178             0.0000000000
     22145       179  DOPE      N             -34.8204103983       18.5607949232      -17.7730569723  MEMB      179             0.0000000000
     22146       179  DOPE      HN1           -35.4358721208       17.7089682788      -17.9523102692  MEMB      179             0.0000000000
     22147       179  DOPE      HN2           -33.9558399137       18.1451031508      -17.3871944532  MEMB      179             0.0000000000
     22148       179  DOPE      HN3           -35.2979166890       19.1534149594      -17.0496474363  MEMB      179             0.0000000000
     22149       179  DOPE      C12           -34.4487795474       19.3289505541      -19.0214721155  MEMB      179             0.0000000000
     22150       179  DOPE      H12A          -35.3712536742       19.5869011721      -19.5767089696  MEMB      179             0.0000000000
     22151       179  DOPE      H12B          -33.8298180545       18.6534179409      -19.6483412517  MEMB      179             0.0000000000
     22152       179  DOPE      C11           -33.6490298146       20.6142060617      -18.7187067943  MEMB      179             0.0000000000
     22153       179  DOPE      H11A          -33.0432323483       20.4911146701      -17.7916897398  MEMB      179             0.0000000000
     22154       179  DOPE      H11B          -34.3551426504       21.4496040669      -18.5151783207  MEMB      179             0.0000000000
     22155       179  DOPE      P             -31.2792342392       20.5655205765      -19.8264636660  MEMB      179             0.0000000000
     22156       179  DOPE      O13           -30.6314335561       21.1339678577      -21.0407643972  MEMB      179             0.0000000000
     22157       179  DOPE      O14           -31.2368059491       19.0998997005      -19.5609115546  MEMB      179             0.0000000000
     22158       179  DOPE      O11           -30.9305708041       21.4267512178      -18.5228035711  MEMB      179             0.0000000000
     22159       179  DOPE      O12           -32.8366779630       20.9639267681      -19.8421066807  MEMB      179             0.0000000000
     22160       179  DOPE      C1            -30.8143977442       22.8358256398      -18.7960001342  MEMB      179             0.0000000000
     22161       179  DOPE      HA            -31.6021700092       23.2021697225      -19.4925741420  MEMB      179             0.0000000000
     22162       179  DOPE      HB            -29.8227493447       22.9703532608      -19.2830257961  MEMB      179             0.0000000000
     22163       179  DOPE      C2            -30.8249382710       23.8167604483      -17.5699751016  MEMB      179             0.0000000000
     22164       179  DOPE      HS            -30.2725064556       24.7388856406      -17.8200461104  MEMB      179             0.0000000000
     22165       179  DOPE      O21           -30.2319866086       23.1967298443      -16.4157300285  MEMB      179             0.0000000000
     22166       179  DOPE      C21           -28.9227660722       22.9743671887      -16.6282515108  MEMB      179             0.0000000000
     22167       179  DOPE      O22           -28.2799584798       23.4531822622      -17.5486297763  MEMB      179             0.0000000000
     22168       179  DOPE      C22           -28.3958789309       22.1720089882      -15.4063574724  MEMB      179             0.0000000000
     22169       179  DOPE      H2R           -27.5910103731       21.4896432164      -15.7373732640  MEMB      179             0.0000000000
     22170       179  DOPE      H2S           -29.2375674126       21.5496598235      -15.0372661280  MEMB      179             0.0000000000
     22171       179  DOPE      C3            -32.2653920768       24.3419284654      -17.2327870029  MEMB      179             0.0000000000
     22172       179  DOPE      HX            -32.7078711633       24.7487652061      -18.1692126732  MEMB      179             0.0000000000
     22173       179  DOPE      HY            -32.1705748958       25.2186264233      -16.5585772693  MEMB      179             0.0000000000
     22174       179  DOPE      O31           -33.1570574837       23.3362098335      -16.7297843527  MEMB      179             0.0000000000
     22175       179  DOPE      C31           -33.2128298717       23.2850420282      -15.4052346224  MEMB      179             0.0000000000
     22176       179  DOPE      O32           -32.8147225085       24.1286777398      -14.6304660387  MEMB      179             0.0000000000
     22177       179  DOPE      C32           -33.7955517003       21.9467906154      -15.0062473438  MEMB      179             0.0000000000
     22178       179  DOPE      H2X           -34.8803567813       21.9962920222      -15.2040508043  MEMB      179             0.0000000000
     22179       179  DOPE      H2Y           -33.3239655333       21.1706881592      -15.6386181079  MEMB      179             0.0000000000
     22180       179  DOPE      C23           -27.8970707538       23.0610942385      -14.2315796551  MEMB      179             0.0000000000
     22181       179  DOPE      H3R           -28.7838044031       23.3524604126      -13.6235285679  MEMB      179             0.0000000000
     22182       179  DOPE      H3S           -27.4204242421       23.9758528535      -14.6539716557  MEMB      179             0.0000000000
     22183       179  DOPE      C24           -26.8437959146       22.4385778881      -13.3041619932  MEMB      179             0.0000000000
     22184       179  DOPE      H4R           -25.8960987130       22.3800670256      -13.8803758686  MEMB      179             0.0000000000
     22185       179  DOPE      H4S           -27.1483595418       21.4053421264      -13.0390381237  MEMB      179             0.0000000000
     22186       179  DOPE      C25           -26.5726690351       23.2281578893      -12.0040825429  MEMB      179             0.0000000000
     22187       179  DOPE      H5R           -26.2062041276       24.2338343999      -12.2505092233  MEMB      179             0.0000000000
     22188       179  DOPE      H5S           -25.7089378634       22.7803160897      -11.4723918472  MEMB      179             0.0000000000
     22189       179  DOPE      C26           -27.7757114534       23.3007703771      -11.0486763099  MEMB      179             0.0000000000
     22190       179  DOPE      H6R           -28.4303225857       22.4386247870      -11.3159135577  MEMB      179             0.0000000000
     22191       179  DOPE      H6S           -28.3984522592       24.1983831336      -11.2253763881  MEMB      179             0.0000000000
     22192       179  DOPE      C27           -27.4121055322       23.0837354659       -9.5656304847  MEMB      179             0.0000000000
     22193       179  DOPE      H7R           -26.4757904451       22.4862225128       -9.5199051443  MEMB      179             0.0000000000
     22194       179  DOPE      H7S           -28.2307843367       22.4671687411       -9.1262544829  MEMB      179             0.0000000000
     22195       179  DOPE      C28           -27.2356399836       24.3003041652       -8.6422092081  MEMB      179             0.0000000000
     22196       179  DOPE      H8R           -26.4981110365       24.9450814512       -9.1638113806  MEMB      179             0.0000000000
     22197       179  DOPE      H8S           -26.7501525849       24.0364803457       -7.6784448600  MEMB      179             0.0000000000
     22198       179  DOPE      C29           -28.6110363392       24.8930881296       -8.4213250857  MEMB      179             0.0000000000
     22199       179  DOPE      H9R           -29.0731795490       25.2300392228       -9.3590924961  MEMB      179             0.0000000000
     22200       179  DOPE      C210          -29.3189972454       25.1137906192       -7.2929867880  MEMB      179             0.0000000000
     22201       179  DOPE      H10R          -30.3268149456       25.5157287927       -7.4244121116  MEMB      179             0.0000000000
     22202       179  DOPE      C211          -29.0049974215       24.8617454983       -5.8410696265  MEMB      179             0.0000000000
     22203       179  DOPE      H11R          -29.1175574538       25.8220708346       -5.2954139685  MEMB      179             0.0000000000
     22204       179  DOPE      H11S          -27.9504966325       24.5528443176       -5.7089459462  MEMB      179             0.0000000000
     22205       179  DOPE      C212          -29.9548267287       23.8632238047       -5.1386968562  MEMB      179             0.0000000000
     22206       179  DOPE      H12R          -29.7357322854       22.8496790386       -5.5329254720  MEMB      179             0.0000000000
     22207       179  DOPE      H12S          -31.0146912108       24.1039159866       -5.3812666560  MEMB      179             0.0000000000
     22208       179  DOPE      C213          -29.8165505305       23.8659257575       -3.6038672615  MEMB      179             0.0000000000
     22209       179  DOPE      H13R          -30.4297130715       24.6918380267       -3.1828316715  MEMB      179             0.0000000000
     22210       179  DOPE      H13S          -28.7612467345       24.0751159030       -3.3448280788  MEMB      179             0.0000000000
     22211       179  DOPE      C214          -30.2048072097       22.5591322226       -2.8912988692  MEMB      179             0.0000000000
     22212       179  DOPE      H14R          -31.2880552551       22.3995883199       -3.0476102452  MEMB      179             0.0000000000
     22213       179  DOPE      H14S          -30.0288847371       22.7051435289       -1.7988361408  MEMB      179             0.0000000000
     22214       179  DOPE      C215          -29.4086812805       21.3201757228       -3.3466102410  MEMB      179             0.0000000000
     22215       179  DOPE      H15R          -28.3769911409       21.6553036043       -3.5154132797  MEMB      179             0.0000000000
     22216       179  DOPE      H15S          -29.8173427405       20.9366973541       -4.3026603758  MEMB      179             0.0000000000
     22217       179  DOPE      C216          -29.2699975360       20.1709113712       -2.3416386078  MEMB      179             0.0000000000
     22218       179  DOPE      H16R          -30.2076549515       19.5871105364       -2.3761954669  MEMB      179             0.0000000000
     22219       179  DOPE      H16S          -29.1249356196       20.6049203010       -1.3286390433  MEMB      179             0.0000000000
     22220       179  DOPE      C217          -28.1601442262       19.1433426905       -2.6252827330  MEMB      179             0.0000000000
     22221       179  DOPE      H17R          -27.2219063645       19.4755101491       -2.1282075155  MEMB      179             0.0000000000
     22222       179  DOPE      H17S          -27.9874238053       19.1360809163       -3.7226185453  MEMB      179             0.0000000000
     22223       179  DOPE      C218          -28.4865959105       17.7004365649       -2.1963215465  MEMB      179             0.0000000000
     22224       179  DOPE      H18R          -27.7057460299       17.0033075370       -2.5677002438  MEMB      179             0.0000000000
     22225       179  DOPE      H18S          -29.4655553263       17.3781175450       -2.6157028569  MEMB      179             0.0000000000
     22226       179  DOPE      H18T          -28.5291243993       17.5997860632       -1.0907023841  MEMB      179             0.0000000000
     22227       179  DOPE      C33           -33.5443809392       21.6414286904      -13.5204307448  MEMB      179             0.0000000000
     22228       179  DOPE      H3X           -34.1036395618       20.7242931663      -13.2295612325  MEMB      179             0.0000000000
     22229       179  DOPE      H3Y           -33.9477215984       22.4806212339      -12.9109179691  MEMB      179             0.0000000000
     22230       179  DOPE      C34           -32.0522688493       21.4322612787      -13.2327272686  MEMB      179             0.0000000000
     22231       179  DOPE      H4X           -31.6854406994       20.5414844395      -13.7932398116  MEMB      179             0.0000000000
     22232       179  DOPE      H4Y           -31.4770088445       22.3104110660      -13.6051959658  MEMB      179             0.0000000000
     22233       179  DOPE      C35           -31.7401751310       21.2753097052      -11.7425477531  MEMB      179             0.0000000000
     22234       179  DOPE      H5X           -30.6363958281       21.3420372012      -11.6097143346  MEMB      179             0.0000000000
     22235       179  DOPE      H5Y           -32.0684936530       20.2696429656      -11.3995238055  MEMB      179             0.0000000000
     22236       179  DOPE      C36           -32.3495454325       22.3537355432      -10.8451893626  MEMB      179             0.0000000000
     22237       179  DOPE      H6X           -33.4566038844       22.2523806761      -10.8031922983  MEMB      179             0.0000000000
     22238       179  DOPE      H6Y           -32.1019115883       23.3485042579      -11.2840598254  MEMB      179             0.0000000000
     22239       179  DOPE      C37           -31.7907776900       22.2769028034       -9.4209194271  MEMB      179             0.0000000000
     22240       179  DOPE      H7X           -30.6784160725       22.3001584461       -9.4756528802  MEMB      179             0.0000000000
     22241       179  DOPE      H7Y           -32.1166893380       23.1851087643       -8.8667992078  MEMB      179             0.0000000000
     22242       179  DOPE      C38           -32.2660180199       21.0248193250       -8.6635239000  MEMB      179             0.0000000000
     22243       179  DOPE      H8X           -32.0302214058       20.1008066499       -9.2293490457  MEMB      179             0.0000000000
     22244       179  DOPE      H8Y           -33.3756197331       21.0635032935       -8.5839987522  MEMB      179             0.0000000000
     22245       179  DOPE      C39           -31.6218336990       20.9771049965       -7.3073889657  MEMB      179             0.0000000000
     22246       179  DOPE      H9X           -30.7048053458       20.3747085526       -7.2226396521  MEMB      179             0.0000000000
     22247       179  DOPE      C310          -32.1325631471       21.5540471004       -6.2126035594  MEMB      179             0.0000000000
     22248       179  DOPE      H10X          -31.5874883709       21.4780009591       -5.2613818599  MEMB      179             0.0000000000
     22249       179  DOPE      C311          -33.4174617124       22.3340823662       -6.1480888481  MEMB      179             0.0000000000
     22250       179  DOPE      H11X          -33.3087210416       23.2095423360       -5.4716068213  MEMB      179             0.0000000000
     22251       179  DOPE      H11Y          -33.7065134407       22.7407013120       -7.1413682024  MEMB      179             0.0000000000
     22252       179  DOPE      C312          -34.5466814552       21.4074946930       -5.6632252559  MEMB      179             0.0000000000
     22253       179  DOPE      H12X          -34.7028429218       20.6030607726       -6.4207264484  MEMB      179             0.0000000000
     22254       179  DOPE      H12Y          -35.4912537465       21.9928634930       -5.6074445611  MEMB      179             0.0000000000
     22255       179  DOPE      C313          -34.2723699031       20.7547195498       -4.2955915613  MEMB      179             0.0000000000
     22256       179  DOPE      H13X          -35.1181601992       20.0734103311       -4.0540235665  MEMB      179             0.0000000000
     22257       179  DOPE      H13Y          -33.3581463185       20.1245285546       -4.3516035798  MEMB      179             0.0000000000
     22258       179  DOPE      C314          -34.1156674524       21.7752928051       -3.1573245360  MEMB      179             0.0000000000
     22259       179  DOPE      H14X          -35.0850382685       22.3187509324       -3.0863327808  MEMB      179             0.0000000000
     22260       179  DOPE      H14Y          -33.3495374198       22.5365227419       -3.4023697616  MEMB      179             0.0000000000
     22261       179  DOPE      C315          -33.8185481166       21.1338502644       -1.7860675022  MEMB      179             0.0000000000
     22262       179  DOPE      H15X          -34.4828967228       20.2483493673       -1.6869572422  MEMB      179             0.0000000000
     22263       179  DOPE      H15Y          -34.0906032475       21.8859706571       -1.0117617722  MEMB      179             0.0000000000
     22264       179  DOPE      C316          -32.3602300484       20.6933838025       -1.5199220788  MEMB      179             0.0000000000
     22265       179  DOPE      H16X          -31.7923162949       21.5794878599       -1.1667284436  MEMB      179             0.0000000000
     22266       179  DOPE      H16Y          -31.9758001481       20.3582361095       -2.5038308408  MEMB      179             0.0000000000
     22267       179  DOPE      C317          -32.1738296119       19.5839655219       -0.4568477726  MEMB      179             0.0000000000
     22268       179  DOPE      H17X          -32.7412494761       19.9335023644        0.4145485182  MEMB      179             0.0000000000
     22269       179  DOPE      H17Y          -32.6126052803       18.6394384178       -0.8465417581  MEMB      179             0.0000000000
     22270       179  DOPE      C318          -30.8141293544       19.2754799504        0.1925949921  MEMB      179             0.0000000000
     22271       179  DOPE      H18X          -30.3035147043       20.2035002638        0.5273601606  MEMB      179             0.0000000000
     22272       179  DOPE      H18Y          -30.9554550100       18.6167680987        1.0765492524  MEMB      179             0.0000000000
     22273       179  DOPE      H18Z          -30.1633790045       18.7143531453       -0.4931736102  MEMB      179             0.0000000000
     22274       180  DOPE      N             -29.3589732088       25.6649988584      -21.8841968783  MEMB      180             0.0000000000
     22275       180  DOPE      HN1           -29.8227630039       26.5717971449      -22.0910205969  MEMB      180             0.0000000000
     22276       180  DOPE      HN2           -28.3178821809       25.7489225498      -22.0155792592  MEMB      180             0.0000000000
     22277       180  DOPE      HN3           -29.6930579932       24.9087228395      -22.5155386650  MEMB      180             0.0000000000
     22278       180  DOPE      C12           -29.5065017360       25.2975712037      -20.4480413230  MEMB      180             0.0000000000
     22279       180  DOPE      H12A          -28.7614860689       24.5094818092      -20.2160399412  MEMB      180             0.0000000000
     22280       180  DOPE      H12B          -30.5344421775       24.9071654455      -20.3136040435  MEMB      180             0.0000000000
     22281       180  DOPE      C11           -29.3010392716       26.5077894164      -19.5369444539  MEMB      180             0.0000000000
     22282       180  DOPE      H11A          -29.2190684046       26.1525574368      -18.4829971485  MEMB      180             0.0000000000
     22283       180  DOPE      H11B          -30.2031867924       27.1434253375      -19.6560525935  MEMB      180             0.0000000000
     22284       180  DOPE      P             -27.9269901553       28.5286773361      -18.8893898856  MEMB      180             0.0000000000
     22285       180  DOPE      O13           -26.8488647257       29.3668664658      -19.4569071244  MEMB      180             0.0000000000
     22286       180  DOPE      O14           -27.7960329950       28.0162583640      -17.5083283256  MEMB      180             0.0000000000
     22287       180  DOPE      O11           -29.3346383255       29.2725122230      -19.0712437853  MEMB      180             0.0000000000
     22288       180  DOPE      O12           -28.1426243447       27.2616112132      -19.8695841647  MEMB      180             0.0000000000
     22289       180  DOPE      C1            -29.5780412226       29.7917881353      -20.3964438813  MEMB      180             0.0000000000
     22290       180  DOPE      HA            -29.6158553708       28.9714626624      -21.1458472834  MEMB      180             0.0000000000
     22291       180  DOPE      HB            -28.7534368468       30.4882458159      -20.6815517852  MEMB      180             0.0000000000
     22292       180  DOPE      C2            -30.8921112783       30.6342499121      -20.5992596988  MEMB      180             0.0000000000
     22293       180  DOPE      HS            -30.6521881532       31.3331124116      -21.4186093434  MEMB      180             0.0000000000
     22294       180  DOPE      O21           -31.3164450979       31.3618495161      -19.4516396565  MEMB      180             0.0000000000
     22295       180  DOPE      C21           -30.4111655196       32.0665097258      -18.8704388175  MEMB      180             0.0000000000
     22296       180  DOPE      O22           -29.5371943559       32.7337771788      -19.4169647828  MEMB      180             0.0000000000
     22297       180  DOPE      C22           -30.6683815135       31.9253929428      -17.3771497552  MEMB      180             0.0000000000
     22298       180  DOPE      H2R           -30.2605162778       30.9365406427      -17.1021575897  MEMB      180             0.0000000000
     22299       180  DOPE      H2S           -31.7556387235       31.9386344287      -17.1665114377  MEMB      180             0.0000000000
     22300       180  DOPE      C3            -32.1166660038       29.8036331833      -21.0490959950  MEMB      180             0.0000000000
     22301       180  DOPE      HX            -31.9579764218       29.4827654301      -22.0992853359  MEMB      180             0.0000000000
     22302       180  DOPE      HY            -33.0271811758       30.4490123028      -21.0447770333  MEMB      180             0.0000000000
     22303       180  DOPE      O31           -32.2696981427       28.6440874995      -20.2184460874  MEMB      180             0.0000000000
     22304       180  DOPE      C31           -32.7761689972       28.8820708029      -19.0182527945  MEMB      180             0.0000000000
     22305       180  DOPE      O32           -33.3939967883       29.8555009698      -18.6517455821  MEMB      180             0.0000000000
     22306       180  DOPE      C32           -32.5480288932       27.6648872013      -18.1586476630  MEMB      180             0.0000000000
     22307       180  DOPE      H2X           -33.5238896873       27.1314515502      -18.1116898557  MEMB      180             0.0000000000
     22308       180  DOPE      H2Y           -31.8009830663       26.9819514828      -18.5801884625  MEMB      180             0.0000000000
     22309       180  DOPE      C23           -29.9409554544       33.0312091412      -16.6285961241  MEMB      180             0.0000000000
     22310       180  DOPE      H3R           -30.4155612598       33.9810073160      -16.9176566674  MEMB      180             0.0000000000
     22311       180  DOPE      H3S           -28.9245879942       33.0436379180      -17.0344823637  MEMB      180             0.0000000000
     22312       180  DOPE      C24           -29.9470370779       32.9021490744      -15.1037147607  MEMB      180             0.0000000000
     22313       180  DOPE      H4R           -31.0302568175       32.8588327407      -14.8425780573  MEMB      180             0.0000000000
     22314       180  DOPE      H4S           -29.5219011489       33.8044347861      -14.6107305613  MEMB      180             0.0000000000
     22315       180  DOPE      C25           -29.3228044523       31.6241399394      -14.5218871483  MEMB      180             0.0000000000
     22316       180  DOPE      H5R           -28.3068425398       31.7992157409      -14.1050409935  MEMB      180             0.0000000000
     22317       180  DOPE      H5S           -29.1964743255       30.8566006055      -15.3164409023  MEMB      180             0.0000000000
     22318       180  DOPE      C26           -30.2624051280       31.0546993903      -13.4535130353  MEMB      180             0.0000000000
     22319       180  DOPE      H6R           -29.8662258980       30.0867091714      -13.0696437878  MEMB      180             0.0000000000
     22320       180  DOPE      H6S           -31.2520083166       30.8643628130      -13.9217959347  MEMB      180             0.0000000000
     22321       180  DOPE      C27           -30.4108222285       31.9764619490      -12.2486516321  MEMB      180             0.0000000000
     22322       180  DOPE      H7R           -30.3293476814       33.0428716305      -12.5410228105  MEMB      180             0.0000000000
     22323       180  DOPE      H7S           -29.5221541302       31.7117380237      -11.6387256071  MEMB      180             0.0000000000
     22324       180  DOPE      C28           -31.6977621099       31.7982079507      -11.4377434002  MEMB      180             0.0000000000
     22325       180  DOPE      H8R           -32.5784304938       32.0454777399      -12.0654010502  MEMB      180             0.0000000000
     22326       180  DOPE      H8S           -31.6844483961       32.4996995276      -10.5718971284  MEMB      180             0.0000000000
     22327       180  DOPE      C29           -31.7522613739       30.3697619396      -11.0068507708  MEMB      180             0.0000000000
     22328       180  DOPE      H9R           -32.3360960552       29.7096697777      -11.6660906482  MEMB      180             0.0000000000
     22329       180  DOPE      C210          -31.2098993721       29.8724199622       -9.8887508949  MEMB      180             0.0000000000
     22330       180  DOPE      H10R          -31.2232470311       28.7854830439       -9.7385364116  MEMB      180             0.0000000000
     22331       180  DOPE      C211          -30.4506052758       30.6184670214       -8.8328623913  MEMB      180             0.0000000000
     22332       180  DOPE      H11R          -30.7759548740       31.6747969742       -8.7648552718  MEMB      180             0.0000000000
     22333       180  DOPE      H11S          -29.3732769727       30.6550695082       -9.0701840493  MEMB      180             0.0000000000
     22334       180  DOPE      C212          -30.6560134361       29.8807599202       -7.4985500667  MEMB      180             0.0000000000
     22335       180  DOPE      H12R          -30.2477226159       28.8476594841       -7.5953655813  MEMB      180             0.0000000000
     22336       180  DOPE      H12S          -31.7333129024       29.7359897589       -7.2882190680  MEMB      180             0.0000000000
     22337       180  DOPE      C213          -29.9552019015       30.5464975990       -6.3029446363  MEMB      180             0.0000000000
     22338       180  DOPE      H13R          -28.8779841656       30.4903849322       -6.5316783226  MEMB      180             0.0000000000
     22339       180  DOPE      H13S          -30.1319448121       29.9410198893       -5.3848533311  MEMB      180             0.0000000000
     22340       180  DOPE      C214          -30.3106276411       32.0048165994       -5.9687592702  MEMB      180             0.0000000000
     22341       180  DOPE      H14R          -31.2851050391       31.9987156013       -5.4444661502  MEMB      180             0.0000000000
     22342       180  DOPE      H14S          -30.4055392357       32.6287452397       -6.8846635951  MEMB      180             0.0000000000
     22343       180  DOPE      C215          -29.2877269907       32.6474487361       -5.0295549969  MEMB      180             0.0000000000
     22344       180  DOPE      H15R          -28.3996309129       32.9160181665       -5.6128559255  MEMB      180             0.0000000000
     22345       180  DOPE      H15S          -28.9913378321       31.9279479553       -4.2381745190  MEMB      180             0.0000000000
     22346       180  DOPE      C216          -29.6817124143       33.9771306009       -4.4103379162  MEMB      180             0.0000000000
     22347       180  DOPE      H16R          -29.7521866158       34.7563559803       -5.2067061654  MEMB      180             0.0000000000
     22348       180  DOPE      H16S          -28.8592725155       34.2641532619       -3.7138624809  MEMB      180             0.0000000000
     22349       180  DOPE      C217          -30.9801345848       33.9871167043       -3.6332853082  MEMB      180             0.0000000000
     22350       180  DOPE      H17R          -31.8302542235       33.7084153249       -4.2803694302  MEMB      180             0.0000000000
     22351       180  DOPE      H17S          -31.1192271106       35.0407303320       -3.3690931527  MEMB      180             0.0000000000
     22352       180  DOPE      C218          -30.9826437155       33.1703911619       -2.3551666906  MEMB      180             0.0000000000
     22353       180  DOPE      H18R          -31.0429487393       32.0871112150       -2.5923010227  MEMB      180             0.0000000000
     22354       180  DOPE      H18S          -31.8635245864       33.4446741413       -1.7326103619  MEMB      180             0.0000000000
     22355       180  DOPE      H18T          -30.0700520664       33.3628654796       -1.7523908342  MEMB      180             0.0000000000
     22356       180  DOPE      C33           -32.1369085723       28.0756038437      -16.7495313983  MEMB      180             0.0000000000
     22357       180  DOPE      H3X           -32.3228146023       27.1586692382      -16.1574597201  MEMB      180             0.0000000000
     22358       180  DOPE      H3Y           -32.7323152059       28.9083279853      -16.3102433175  MEMB      180             0.0000000000
     22359       180  DOPE      C34           -30.6838995509       28.1395562911      -16.3931154114  MEMB      180             0.0000000000
     22360       180  DOPE      H4X           -30.1737154217       27.2434391961      -16.7995875565  MEMB      180             0.0000000000
     22361       180  DOPE      H4Y           -30.1435293603       29.0076020199      -16.8058646903  MEMB      180             0.0000000000
     22362       180  DOPE      C35           -30.6312915683       28.1525189965      -14.8639268623  MEMB      180             0.0000000000
     22363       180  DOPE      H5X           -31.5575898944       28.5742978918      -14.4189315680  MEMB      180             0.0000000000
     22364       180  DOPE      H5Y           -29.7994067523       28.8325500434      -14.6187175174  MEMB      180             0.0000000000
     22365       180  DOPE      C36           -30.3453161901       26.7906188150      -14.2562123477  MEMB      180             0.0000000000
     22366       180  DOPE      H6X           -31.0614994015       26.0160402752      -14.6077019541  MEMB      180             0.0000000000
     22367       180  DOPE      H6Y           -30.4318031493       26.8362442129      -13.1463830182  MEMB      180             0.0000000000
     22368       180  DOPE      C37           -28.9126971026       26.4108756165      -14.5961732049  MEMB      180             0.0000000000
     22369       180  DOPE      H7X           -28.8468919864       25.3279347685      -14.4189629707  MEMB      180             0.0000000000
     22370       180  DOPE      H7Y           -28.6874320403       26.5411541254      -15.6766818532  MEMB      180             0.0000000000
     22371       180  DOPE      C38           -27.8986656376       27.2528251607      -13.8017268830  MEMB      180             0.0000000000
     22372       180  DOPE      H8X           -28.2721990879       28.2596792147      -13.5452806079  MEMB      180             0.0000000000
     22373       180  DOPE      H8Y           -26.9952960710       27.3896637619      -14.4380897627  MEMB      180             0.0000000000
     22374       180  DOPE      C39           -27.5631899465       26.4907071465      -12.5751025272  MEMB      180             0.0000000000
     22375       180  DOPE      H9X           -27.3714239932       25.4642448665      -12.8680171159  MEMB      180             0.0000000000
     22376       180  DOPE      C310          -27.6949045977       26.7735906155      -11.2740832176  MEMB      180             0.0000000000
     22377       180  DOPE      H10X          -27.3526543844       26.0107121794      -10.5728048962  MEMB      180             0.0000000000
     22378       180  DOPE      C311          -28.2433113567       27.9953317808      -10.6011629431  MEMB      180             0.0000000000
     22379       180  DOPE      H11X          -28.5338952085       28.7756358232      -11.3379722860  MEMB      180             0.0000000000
     22380       180  DOPE      H11Y          -29.1717432058       27.7096652459      -10.0580921012  MEMB      180             0.0000000000
     22381       180  DOPE      C312          -27.2835643330       28.5936754162       -9.5524982053  MEMB      180             0.0000000000
     22382       180  DOPE      H12X          -27.7981303212       29.4867567481       -9.1558670626  MEMB      180             0.0000000000
     22383       180  DOPE      H12Y          -26.3337003722       28.9055400979      -10.0307246996  MEMB      180             0.0000000000
     22384       180  DOPE      C313          -27.0355259422       27.6967694554       -8.3316683782  MEMB      180             0.0000000000
     22385       180  DOPE      H13X          -28.0303763824       27.4691414355       -7.8971042363  MEMB      180             0.0000000000
     22386       180  DOPE      H13Y          -26.5637284930       26.7703277773       -8.6772563534  MEMB      180             0.0000000000
     22387       180  DOPE      C314          -26.1086636969       28.2113589460       -7.2244386514  MEMB      180             0.0000000000
     22388       180  DOPE      H14X          -26.0529094045       29.3077989202       -7.2829603613  MEMB      180             0.0000000000
     22389       180  DOPE      H14Y          -25.0794542252       27.8363696450       -7.4191089590  MEMB      180             0.0000000000
     22390       180  DOPE      C315          -26.5178617145       27.7397660605       -5.8126151064  MEMB      180             0.0000000000
     22391       180  DOPE      H15X          -25.7166797348       28.0306761482       -5.1133874229  MEMB      180             0.0000000000
     22392       180  DOPE      H15Y          -26.5716314002       26.6327659051       -5.8065029724  MEMB      180             0.0000000000
     22393       180  DOPE      C316          -27.8525828523       28.3202810073       -5.3180628338  MEMB      180             0.0000000000
     22394       180  DOPE      H16X          -28.6626789746       27.9889381617       -6.0004434892  MEMB      180             0.0000000000
     22395       180  DOPE      H16Y          -27.7607835734       29.4239580403       -5.3934038515  MEMB      180             0.0000000000
     22396       180  DOPE      C317          -28.2930548217       28.0178463673       -3.8693822091  MEMB      180             0.0000000000
     22397       180  DOPE      H17X          -28.1455602841       28.9406108945       -3.2667290860  MEMB      180             0.0000000000
     22398       180  DOPE      H17Y          -29.3942204442       27.8381128655       -3.8703193489  MEMB      180             0.0000000000
     22399       180  DOPE      C318          -27.5951633381       26.8505925063       -3.1678111764  MEMB      180             0.0000000000
     22400       180  DOPE      H18X          -27.8769760909       26.8210801833       -2.0925625359  MEMB      180             0.0000000000
     22401       180  DOPE      H18Y          -27.8630590663       25.8815388191       -3.6182578191  MEMB      180             0.0000000000
     22402       180  DOPE      H18Z          -26.4922179521       26.9527190584       -3.2343254429  MEMB      180             0.0000000000
     22403       181  DOPC      N              38.8736713851       12.7355529249      -20.6405713311  MEMB      181             0.0000000000
     22404       181  DOPC      C12            39.4758618472       12.1060312794      -19.3874452169  MEMB      181             0.0000000000
     22405       181  DOPC      H12A           39.5591720880       11.0330933109      -19.5500558282  MEMB      181             0.0000000000
     22406       181  DOPC      H12B           38.7586683105       12.2323213240      -18.5828556946  MEMB      181             0.0000000000
     22407       181  DOPC      C13            37.8627683351       13.7922175994      -20.2435573411  MEMB      181             0.0000000000
     22408       181  DOPC      H13A           38.3451182105       14.5145617350      -19.5797439508  MEMB      181             0.0000000000
     22409       181  DOPC      H13B           37.4409047337       14.3199371083      -21.0922105062  MEMB      181             0.0000000000
     22410       181  DOPC      H13C           37.0619949193       13.4171240061      -19.6280621338  MEMB      181             0.0000000000
     22411       181  DOPC      C14            38.2660585795       11.6553591825      -21.4615394636  MEMB      181             0.0000000000
     22412       181  DOPC      H14A           37.6738011445       12.0461221533      -22.2665711528  MEMB      181             0.0000000000
     22413       181  DOPC      H14B           39.0446847388       10.9724769674      -21.8131710998  MEMB      181             0.0000000000
     22414       181  DOPC      H14C           37.6042297704       11.0395371877      -20.8564901807  MEMB      181             0.0000000000
     22415       181  DOPC      C15            39.9667827973       13.4038439458      -21.4084639338  MEMB      181             0.0000000000
     22416       181  DOPC      H15A           40.7208923532       12.6849661357      -21.6961906152  MEMB      181             0.0000000000
     22417       181  DOPC      H15B           40.4648214590       14.1014887957      -20.7294466086  MEMB      181             0.0000000000
     22418       181  DOPC      H15C           39.6005237196       13.9483820701      -22.2601228388  MEMB      181             0.0000000000
     22419       181  DOPC      C11            40.8649432566       12.6061916605      -18.8794224912  MEMB      181             0.0000000000
     22420       181  DOPC      H11A           41.0665798562       12.1421653731      -17.8827868472  MEMB      181             0.0000000000
     22421       181  DOPC      H11B           41.6622662806       12.1991743472      -19.5483302532  MEMB      181             0.0000000000
     22422       181  DOPC      P              40.5847964690       14.8438719558      -17.5163495444  MEMB      181             0.0000000000
     22423       181  DOPC      O13            40.7710374904       16.2769255353      -17.8597874618  MEMB      181             0.0000000000
     22424       181  DOPC      O14            41.3117591797       14.2886511389      -16.3580170076  MEMB      181             0.0000000000
     22425       181  DOPC      O12            40.9647527435       14.0357823612      -18.8287982605  MEMB      181             0.0000000000
     22426       181  DOPC      O11            39.0431826304       14.6092675359      -17.4808189542  MEMB      181             0.0000000000
     22427       181  DOPC      C1             38.3976599544       13.5662529526      -16.7846200558  MEMB      181             0.0000000000
     22428       181  DOPC      HA             38.9424941913       12.6061183686      -16.8834196050  MEMB      181             0.0000000000
     22429       181  DOPC      HB             37.3817815765       13.4579378519      -17.2350890337  MEMB      181             0.0000000000
     22430       181  DOPC      C2             38.1458866450       13.7888482926      -15.2731566015  MEMB      181             0.0000000000
     22431       181  DOPC      HS             37.4165964701       14.5948120392      -15.1290217756  MEMB      181             0.0000000000
     22432       181  DOPC      O21            39.3254385522       14.0423646371      -14.4653641056  MEMB      181             0.0000000000
     22433       181  DOPC      C21            39.5862621654       15.3447323113      -14.3678465185  MEMB      181             0.0000000000
     22434       181  DOPC      O22            39.0401477208       16.2112223842      -15.0239511523  MEMB      181             0.0000000000
     22435       181  DOPC      C22            40.5774544095       15.7085886291      -13.2700397231  MEMB      181             0.0000000000
     22436       181  DOPC      H2R            41.5892481838       15.4195201090      -13.6145308657  MEMB      181             0.0000000000
     22437       181  DOPC      H2S            40.3159355470       15.1273059037      -12.3662860365  MEMB      181             0.0000000000
     22438       181  DOPC      C3             37.4071828739       12.5208298210      -14.7954878578  MEMB      181             0.0000000000
     22439       181  DOPC      HX             38.0014703118       11.6063795772      -15.0463367711  MEMB      181             0.0000000000
     22440       181  DOPC      HY             36.4648222966       12.4461372176      -15.3841159458  MEMB      181             0.0000000000
     22441       181  DOPC      O31            37.0760039304       12.6487665395      -13.4027098921  MEMB      181             0.0000000000
     22442       181  DOPC      C31            38.1117489784       12.2844971919      -12.6644777526  MEMB      181             0.0000000000
     22443       181  DOPC      O32            39.1329242480       11.7682674286      -13.0806201298  MEMB      181             0.0000000000
     22444       181  DOPC      C32            37.7672305130       12.5222657650      -11.2017039890  MEMB      181             0.0000000000
     22445       181  DOPC      H2X            37.2744908804       13.5136914996      -11.1198873745  MEMB      181             0.0000000000
     22446       181  DOPC      H2Y            37.0455060889       11.7526132701      -10.8602306975  MEMB      181             0.0000000000
     22447       181  DOPC      C23            40.4882706810       17.2418417617      -12.9926937617  MEMB      181             0.0000000000
     22448       181  DOPC      H3R            39.5340306747       17.4476008726      -12.4557776032  MEMB      181             0.0000000000
     22449       181  DOPC      H3S            40.4316558755       17.8113016796      -13.9499442699  MEMB      181             0.0000000000
     22450       181  DOPC      C24            41.6514897672       17.8695220951      -12.1996967252  MEMB      181             0.0000000000
     22451       181  DOPC      H4R            41.3662263832       18.9103314075      -11.9272537020  MEMB      181             0.0000000000
     22452       181  DOPC      H4S            42.5422029093       17.9399596725      -12.8634278110  MEMB      181             0.0000000000
     22453       181  DOPC      C25            42.0676447428       17.1148479022      -10.9327602522  MEMB      181             0.0000000000
     22454       181  DOPC      H5R            42.8109435726       17.7168452915      -10.3607488025  MEMB      181             0.0000000000
     22455       181  DOPC      H5S            42.5689872758       16.1735964440      -11.2596573520  MEMB      181             0.0000000000
     22456       181  DOPC      C26            40.9076055996       16.7427974701      -10.0077042838  MEMB      181             0.0000000000
     22457       181  DOPC      H6R            40.0510656610       16.3760985105      -10.6141406664  MEMB      181             0.0000000000
     22458       181  DOPC      H6S            40.5341017831       17.6206357393       -9.4368297232  MEMB      181             0.0000000000
     22459       181  DOPC      C27            41.3063226265       15.6016935962       -9.0697508322  MEMB      181             0.0000000000
     22460       181  DOPC      H7R            41.9685583630       15.9746949671       -8.2576853287  MEMB      181             0.0000000000
     22461       181  DOPC      H7S            41.9017862351       14.8563251802       -9.6480802978  MEMB      181             0.0000000000
     22462       181  DOPC      C28            40.0667882304       14.8781927689       -8.5349993885  MEMB      181             0.0000000000
     22463       181  DOPC      H8R            40.3282956098       13.8175976695       -8.3346915430  MEMB      181             0.0000000000
     22464       181  DOPC      H8S            39.2770066535       14.8988437116       -9.3169674970  MEMB      181             0.0000000000
     22465       181  DOPC      C29            39.5455107194       15.5285071744       -7.3002538914  MEMB      181             0.0000000000
     22466       181  DOPC      H9R            40.1957769912       16.3157273145       -6.9029487348  MEMB      181             0.0000000000
     22467       181  DOPC      C210           38.4489567999       15.1844613445       -6.6145196178  MEMB      181             0.0000000000
     22468       181  DOPC      H10R           38.1951735817       15.7893815558       -5.7299162536  MEMB      181             0.0000000000
     22469       181  DOPC      C211           37.4912918023       14.0617656152       -6.9308249084  MEMB      181             0.0000000000
     22470       181  DOPC      H11R           37.3009956847       13.5155918570       -5.9896856462  MEMB      181             0.0000000000
     22471       181  DOPC      H11S           37.9080234438       13.3362258455       -7.6490746926  MEMB      181             0.0000000000
     22472       181  DOPC      C212           36.1209840951       14.5537868082       -7.4120852179  MEMB      181             0.0000000000
     22473       181  DOPC      H12R           36.2386016183       15.2407286584       -8.2748234977  MEMB      181             0.0000000000
     22474       181  DOPC      H12S           35.7489566870       15.1349910091       -6.5562002020  MEMB      181             0.0000000000
     22475       181  DOPC      C213           35.0601677872       13.4955386477       -7.7844857062  MEMB      181             0.0000000000
     22476       181  DOPC      H13R           35.3277310415       13.0528241433       -8.7701921770  MEMB      181             0.0000000000
     22477       181  DOPC      H13S           34.0828944413       14.0201008296       -7.9088533756  MEMB      181             0.0000000000
     22478       181  DOPC      C214           34.8502144391       12.3439975882       -6.7866481405  MEMB      181             0.0000000000
     22479       181  DOPC      H14R           35.8016891698       11.7754120600       -6.7006695490  MEMB      181             0.0000000000
     22480       181  DOPC      H14S           34.0850722732       11.6510771457       -7.2111441089  MEMB      181             0.0000000000
     22481       181  DOPC      C215           34.3760367078       12.7719598515       -5.3884733722  MEMB      181             0.0000000000
     22482       181  DOPC      H15R           33.3405249926       13.1726638731       -5.4487129432  MEMB      181             0.0000000000
     22483       181  DOPC      H15S           35.0415075781       13.5785990039       -5.0151708673  MEMB      181             0.0000000000
     22484       181  DOPC      C216           34.4006278107       11.6293320896       -4.3581438924  MEMB      181             0.0000000000
     22485       181  DOPC      H16R           35.4379396418       11.2295993357       -4.3516519180  MEMB      181             0.0000000000
     22486       181  DOPC      H16S           33.7007576659       10.8373208808       -4.6872369559  MEMB      181             0.0000000000
     22487       181  DOPC      C217           34.0330820138       12.0981825744       -2.9462095040  MEMB      181             0.0000000000
     22488       181  DOPC      H17R           33.0476185944       12.6114417665       -2.9870011577  MEMB      181             0.0000000000
     22489       181  DOPC      H17S           34.8471170005       12.8047631146       -2.6863476009  MEMB      181             0.0000000000
     22490       181  DOPC      C218           34.0209572816       11.1385759988       -1.7690029705  MEMB      181             0.0000000000
     22491       181  DOPC      H18R           33.6728073676       11.6429355760       -0.8441220801  MEMB      181             0.0000000000
     22492       181  DOPC      H18S           35.0674286550       10.8180897938       -1.5901156022  MEMB      181             0.0000000000
     22493       181  DOPC      H18T           33.3717798116       10.2593860924       -1.9366499359  MEMB      181             0.0000000000
     22494       181  DOPC      C33            39.0377305275       12.4942180344      -10.3348762369  MEMB      181             0.0000000000
     22495       181  DOPC      H3X            38.7243356448       12.6922008636       -9.2925464498  MEMB      181             0.0000000000
     22496       181  DOPC      H3Y            39.7279180089       13.3004402502      -10.6707539140  MEMB      181             0.0000000000
     22497       181  DOPC      C34            39.8085168985       11.1730889307      -10.3272564988  MEMB      181             0.0000000000
     22498       181  DOPC      H4X            40.4640089089       11.1272355304      -11.2262347756  MEMB      181             0.0000000000
     22499       181  DOPC      H4Y            39.0934189249       10.3300497291      -10.3826870678  MEMB      181             0.0000000000
     22500       181  DOPC      C35            40.6962907431       10.9607296082       -9.1030802968  MEMB      181             0.0000000000
     22501       181  DOPC      H5X            40.1027648164       10.9546391799       -8.1671558788  MEMB      181             0.0000000000
     22502       181  DOPC      H5Y            41.4170756831       11.8056346352       -9.0234348239  MEMB      181             0.0000000000
     22503       181  DOPC      C36            41.4699886470        9.6443255484       -9.2364062084  MEMB      181             0.0000000000
     22504       181  DOPC      H6X            41.9793585267        9.6607524322      -10.2292232061  MEMB      181             0.0000000000
     22505       181  DOPC      H6Y            42.2868744574        9.6562864034       -8.4908185059  MEMB      181             0.0000000000
     22506       181  DOPC      C37            40.6326641700        8.3341800089       -9.1583183891  MEMB      181             0.0000000000
     22507       181  DOPC      H7X            40.3545257093        8.1138168159      -10.2167969688  MEMB      181             0.0000000000
     22508       181  DOPC      H7Y            41.2878359897        7.4965039362       -8.8395054358  MEMB      181             0.0000000000
     22509       181  DOPC      C38            39.2827725871        8.3176719111       -8.3544264180  MEMB      181             0.0000000000
     22510       181  DOPC      H8X            38.7008419266        7.5044829029       -8.8393933562  MEMB      181             0.0000000000
     22511       181  DOPC      H8Y            38.7461320300        9.2537273474       -8.5819648132  MEMB      181             0.0000000000
     22512       181  DOPC      C39            39.1689829949        8.0008069725       -6.8793967617  MEMB      181             0.0000000000
     22513       181  DOPC      H9X            39.3226416224        6.9320292033       -6.6576854098  MEMB      181             0.0000000000
     22514       181  DOPC      C310           38.7975142816        8.7985151913       -5.8502710774  MEMB      181             0.0000000000
     22515       181  DOPC      H10X           38.7634978415        8.3504719569       -4.8442007226  MEMB      181             0.0000000000
     22516       181  DOPC      C311           38.3792611322       10.2531021493       -5.9057317616  MEMB      181             0.0000000000
     22517       181  DOPC      H11X           37.2990753829       10.2431644647       -5.6558896509  MEMB      181             0.0000000000
     22518       181  DOPC      H11Y           38.4375888901       10.6530840541       -6.9395300989  MEMB      181             0.0000000000
     22519       181  DOPC      C312           38.9132933883       11.3476364912       -4.9555235728  MEMB      181             0.0000000000
     22520       181  DOPC      H12X           39.0375802452       10.9895665535       -3.9231708576  MEMB      181             0.0000000000
     22521       181  DOPC      H12Y           38.1043269099       12.1052697985       -4.8697509276  MEMB      181             0.0000000000
     22522       181  DOPC      C313           40.1527666664       12.0972993114       -5.4530921203  MEMB      181             0.0000000000
     22523       181  DOPC      H13X           41.0147955143       11.4047629498       -5.5278737229  MEMB      181             0.0000000000
     22524       181  DOPC      H13Y           39.9608211851       12.4814309986       -6.4790640550  MEMB      181             0.0000000000
     22525       181  DOPC      C314           40.4781375555       13.2910803934       -4.5368068123  MEMB      181             0.0000000000
     22526       181  DOPC      H14X           39.6135480785       13.9859556523       -4.5614413381  MEMB      181             0.0000000000
     22527       181  DOPC      H14Y           40.5744918282       12.9432434557       -3.4851498492  MEMB      181             0.0000000000
     22528       181  DOPC      C315           41.7679202634       14.0304387010       -4.9306848187  MEMB      181             0.0000000000
     22529       181  DOPC      H15X           41.9096300773       13.9221265612       -6.0312676503  MEMB      181             0.0000000000
     22530       181  DOPC      H15Y           42.6301037284       13.5347232159       -4.4331158969  MEMB      181             0.0000000000
     22531       181  DOPC      C316           41.7923484249       15.5364836544       -4.5993853157  MEMB      181             0.0000000000
     22532       181  DOPC      H16X           42.8105195509       15.9400430112       -4.7885814993  MEMB      181             0.0000000000
     22533       181  DOPC      H16Y           41.1238753956       16.0674651902       -5.2929588811  MEMB      181             0.0000000000
     22534       181  DOPC      C317           41.3086631449       15.9427192190       -3.2041597779  MEMB      181             0.0000000000
     22535       181  DOPC      H17X           41.1176795680       17.0427362076       -3.2217099108  MEMB      181             0.0000000000
     22536       181  DOPC      H17Y           40.3353923921       15.4540897861       -2.9762221920  MEMB      181             0.0000000000
     22537       181  DOPC      C318           42.3285210067       15.6418517935       -2.1134716029  MEMB      181             0.0000000000
     22538       181  DOPC      H18X           41.9676580347       16.0197180844       -1.1328504446  MEMB      181             0.0000000000
     22539       181  DOPC      H18Y           42.4989803187       14.5459006558       -2.0393080152  MEMB      181             0.0000000000
     22540       181  DOPC      H18Z           43.2946050953       16.1381310093       -2.3524317014  MEMB      181             0.0000000000
     22541       182  DOPC      N              35.1815863865      -21.9670282142      -20.1165194175  MEMB      182             0.0000000000
     22542       182  DOPC      C12            34.4893798310      -21.8764423607      -18.7813532572  MEMB      182             0.0000000000
     22543       182  DOPC      H12A           34.4018060519      -22.8682365538      -18.3559210526  MEMB      182             0.0000000000
     22544       182  DOPC      H12B           33.4639807128      -21.5133853174      -18.9302559409  MEMB      182             0.0000000000
     22545       182  DOPC      C13            34.7779665984      -23.2245696832      -20.8325494297  MEMB      182             0.0000000000
     22546       182  DOPC      H13A           35.1353633233      -23.1944069229      -21.8582361504  MEMB      182             0.0000000000
     22547       182  DOPC      H13B           35.1732706260      -24.1125043923      -20.3566681599  MEMB      182             0.0000000000
     22548       182  DOPC      H13C           33.6960326235      -23.3076245669      -20.8619220331  MEMB      182             0.0000000000
     22549       182  DOPC      C14            36.6625112655      -21.8931013551      -19.9177592065  MEMB      182             0.0000000000
     22550       182  DOPC      H14A           36.8760719410      -20.9540912816      -19.4162352805  MEMB      182             0.0000000000
     22551       182  DOPC      H14B           37.0186182503      -22.6969254704      -19.2863696506  MEMB      182             0.0000000000
     22552       182  DOPC      H14C           37.1920310029      -21.9417488489      -20.8597908207  MEMB      182             0.0000000000
     22553       182  DOPC      C15            34.7443716424      -20.7902881212      -20.9387834258  MEMB      182             0.0000000000
     22554       182  DOPC      H15A           35.2812749862      -20.7279558401      -21.8709167033  MEMB      182             0.0000000000
     22555       182  DOPC      H15B           34.8842850264      -19.8647255923      -20.3768205688  MEMB      182             0.0000000000
     22556       182  DOPC      H15C           33.6747077998      -20.8238862449      -21.1229198778  MEMB      182             0.0000000000
     22557       182  DOPC      C11            35.1348003507      -20.9302958820      -17.7346595012  MEMB      182             0.0000000000
     22558       182  DOPC      H11A           34.5392466986      -21.0618129764      -16.8358647863  MEMB      182             0.0000000000
     22559       182  DOPC      H11B           36.1542906181      -21.2648215613      -17.4472980693  MEMB      182             0.0000000000
     22560       182  DOPC      P              33.7519914661      -18.7608521689      -18.2433068077  MEMB      182             0.0000000000
     22561       182  DOPC      O13            32.6354584195      -19.7363109145      -18.3083006847  MEMB      182             0.0000000000
     22562       182  DOPC      O14            33.9609067608      -17.9224781758      -19.4405134917  MEMB      182             0.0000000000
     22563       182  DOPC      O12            35.1383048225      -19.5497242689      -18.0992758623  MEMB      182             0.0000000000
     22564       182  DOPC      O11            33.6781609964      -17.8151585516      -16.9615815136  MEMB      182             0.0000000000
     22565       182  DOPC      C1             32.5511760024      -17.6348881881      -16.0934148633  MEMB      182             0.0000000000
     22566       182  DOPC      HA             31.5954793567      -17.8340845872      -16.6319872937  MEMB      182             0.0000000000
     22567       182  DOPC      HB             32.5276663609      -16.5784165789      -15.7465666851  MEMB      182             0.0000000000
     22568       182  DOPC      C2             32.5932145473      -18.5573599679      -14.8353815561  MEMB      182             0.0000000000
     22569       182  DOPC      HS             33.4306211427      -18.2178071308      -14.1822321860  MEMB      182             0.0000000000
     22570       182  DOPC      O21            32.7876995894      -19.8527115894      -15.3444445711  MEMB      182             0.0000000000
     22571       182  DOPC      C21            33.5406656637      -20.6751314368      -14.7330400048  MEMB      182             0.0000000000
     22572       182  DOPC      O22            34.4331519895      -20.4521401814      -13.9354669638  MEMB      182             0.0000000000
     22573       182  DOPC      C22            33.0323105399      -22.0424297162      -15.1984913652  MEMB      182             0.0000000000
     22574       182  DOPC      H2R            33.8970400326      -22.6181979322      -15.5862220571  MEMB      182             0.0000000000
     22575       182  DOPC      H2S            32.2803069299      -21.9342614588      -16.0090071552  MEMB      182             0.0000000000
     22576       182  DOPC      C3             31.2593520139      -18.5917971779      -14.0276881323  MEMB      182             0.0000000000
     22577       182  DOPC      HX             30.7714506716      -19.5316818991      -14.3735942019  MEMB      182             0.0000000000
     22578       182  DOPC      HY             30.6335374603      -17.7566328647      -14.3845513425  MEMB      182             0.0000000000
     22579       182  DOPC      O31            31.3284057672      -18.6897935406      -12.5824198269  MEMB      182             0.0000000000
     22580       182  DOPC      C31            30.1225683634      -18.5530535992      -11.9999573053  MEMB      182             0.0000000000
     22581       182  DOPC      O32            29.1809104428      -17.9762207460      -12.4914308087  MEMB      182             0.0000000000
     22582       182  DOPC      C32            29.9740063038      -19.3182097571      -10.7094835275  MEMB      182             0.0000000000
     22583       182  DOPC      H2X            28.8666168373      -19.3758403502      -10.5937058929  MEMB      182             0.0000000000
     22584       182  DOPC      H2Y            30.3454637908      -20.3469692349      -10.8400042795  MEMB      182             0.0000000000
     22585       182  DOPC      C23            32.4743846631      -22.7820186517      -14.0009050466  MEMB      182             0.0000000000
     22586       182  DOPC      H3R            33.2944590770      -22.6787783425      -13.2535728894  MEMB      182             0.0000000000
     22587       182  DOPC      H3S            32.3986581487      -23.8552405741      -14.2550195738  MEMB      182             0.0000000000
     22588       182  DOPC      C24            31.1285534299      -22.2602293825      -13.4543343412  MEMB      182             0.0000000000
     22589       182  DOPC      H4R            30.3080492332      -22.3658098703      -14.1968284978  MEMB      182             0.0000000000
     22590       182  DOPC      H4S            31.2467815474      -21.1801617441      -13.2292246703  MEMB      182             0.0000000000
     22591       182  DOPC      C25            30.7421828799      -22.9247104003      -12.1247808830  MEMB      182             0.0000000000
     22592       182  DOPC      H5R            30.2269560015      -23.8890978796      -12.3026498459  MEMB      182             0.0000000000
     22593       182  DOPC      H5S            30.0144115524      -22.2809130743      -11.5861528689  MEMB      182             0.0000000000
     22594       182  DOPC      C26            32.0171027005      -23.1353082732      -11.2970670679  MEMB      182             0.0000000000
     22595       182  DOPC      H6R            32.5228447186      -22.1593508832      -11.1971853347  MEMB      182             0.0000000000
     22596       182  DOPC      H6S            32.6979535224      -23.8379998700      -11.8342848467  MEMB      182             0.0000000000
     22597       182  DOPC      C27            31.9245352032      -23.8244530750       -9.9606872192  MEMB      182             0.0000000000
     22598       182  DOPC      H7R            32.9110272944      -23.8013823729       -9.4409623843  MEMB      182             0.0000000000
     22599       182  DOPC      H7S            31.7009834955      -24.8699508894      -10.2178014086  MEMB      182             0.0000000000
     22600       182  DOPC      C28            30.7980198552      -23.4039054316       -9.0637241234  MEMB      182             0.0000000000
     22601       182  DOPC      H8R            30.5608234383      -24.2382448689       -8.3676548257  MEMB      182             0.0000000000
     22602       182  DOPC      H8S            29.8875033224      -23.2928070458       -9.6798253255  MEMB      182             0.0000000000
     22603       182  DOPC      C29            31.1609634114      -22.1587636490       -8.3157700417  MEMB      182             0.0000000000
     22604       182  DOPC      H9R            30.8356290505      -21.2219517516       -8.7756871130  MEMB      182             0.0000000000
     22605       182  DOPC      C210           31.5652788976      -22.1602661381       -7.0492794411  MEMB      182             0.0000000000
     22606       182  DOPC      H10R           31.8045220121      -21.2152484189       -6.5383351207  MEMB      182             0.0000000000
     22607       182  DOPC      C211           31.7013249687      -23.4235005780       -6.2604319086  MEMB      182             0.0000000000
     22608       182  DOPC      H11R           32.4911092701      -23.2613223922       -5.5474220505  MEMB      182             0.0000000000
     22609       182  DOPC      H11S           32.0383162655      -24.2905760404       -6.8644166963  MEMB      182             0.0000000000
     22610       182  DOPC      C212           30.4883979953      -23.7706782708       -5.4102643843  MEMB      182             0.0000000000
     22611       182  DOPC      H12R           30.7428827010      -24.6996044722       -4.8510653736  MEMB      182             0.0000000000
     22612       182  DOPC      H12S           29.5972745243      -23.9886314420       -6.0334097256  MEMB      182             0.0000000000
     22613       182  DOPC      C213           30.2087500392      -22.6664630035       -4.3895433095  MEMB      182             0.0000000000
     22614       182  DOPC      H13R           29.5501575205      -21.8924997424       -4.8137034613  MEMB      182             0.0000000000
     22615       182  DOPC      H13S           31.1554816444      -22.1399859932       -4.1262978016  MEMB      182             0.0000000000
     22616       182  DOPC      C214           29.6231834584      -23.2374749352       -3.1117403524  MEMB      182             0.0000000000
     22617       182  DOPC      H14R           28.8479595976      -24.0034524776       -3.3263758697  MEMB      182             0.0000000000
     22618       182  DOPC      H14S           29.1530886944      -22.4200950945       -2.5229589374  MEMB      182             0.0000000000
     22619       182  DOPC      C215           30.7206485724      -23.8736395193       -2.2744878217  MEMB      182             0.0000000000
     22620       182  DOPC      H15R           31.6821530442      -23.4208254904       -2.5326740227  MEMB      182             0.0000000000
     22621       182  DOPC      H15S           30.9170813577      -24.8678988366       -2.6454882007  MEMB      182             0.0000000000
     22622       182  DOPC      C216           30.3094081418      -23.8603954652       -0.8026875535  MEMB      182             0.0000000000
     22623       182  DOPC      H16R           29.2834967044      -24.2808057773       -0.8202121214  MEMB      182             0.0000000000
     22624       182  DOPC      H16S           30.2377131039      -22.8124069653       -0.4457466943  MEMB      182             0.0000000000
     22625       182  DOPC      C217           31.1173010305      -24.6777545707        0.2132414170  MEMB      182             0.0000000000
     22626       182  DOPC      H17R           30.9127565735      -25.7470930620        0.0649649163  MEMB      182             0.0000000000
     22627       182  DOPC      H17S           30.7629266592      -24.4183616330        1.2306388844  MEMB      182             0.0000000000
     22628       182  DOPC      C218           32.6147156578      -24.4643563654        0.2371351061  MEMB      182             0.0000000000
     22629       182  DOPC      H18R           32.7857266045      -23.4481397401        0.6122934805  MEMB      182             0.0000000000
     22630       182  DOPC      H18S           33.0532914330      -24.5421577584       -0.7775841970  MEMB      182             0.0000000000
     22631       182  DOPC      H18T           33.1032438752      -25.2025641037        0.9082385258  MEMB      182             0.0000000000
     22632       182  DOPC      C33            30.5220403177      -18.6302477589       -9.4467059815  MEMB      182             0.0000000000
     22633       182  DOPC      H3X            30.1668847052      -19.2481462310       -8.5968385057  MEMB      182             0.0000000000
     22634       182  DOPC      H3Y            30.0504934382      -17.6361213618       -9.3014323953  MEMB      182             0.0000000000
     22635       182  DOPC      C34            32.0518435412      -18.5657456416       -9.3378326950  MEMB      182             0.0000000000
     22636       182  DOPC      H4X            32.3055646355      -18.5856255333       -8.2515600173  MEMB      182             0.0000000000
     22637       182  DOPC      H4Y            32.4578741948      -17.6300843037       -9.7635079759  MEMB      182             0.0000000000
     22638       182  DOPC      C35            32.7976451059      -19.6763063807      -10.0659981657  MEMB      182             0.0000000000
     22639       182  DOPC      H5X            32.8476040119      -19.5048716374      -11.1597721901  MEMB      182             0.0000000000
     22640       182  DOPC      H5Y            32.2606117537      -20.6227798931       -9.9304602856  MEMB      182             0.0000000000
     22641       182  DOPC      C36            34.2247186904      -19.8639500781       -9.5787861794  MEMB      182             0.0000000000
     22642       182  DOPC      H6X            34.8725419272      -19.1181780919      -10.0813039671  MEMB      182             0.0000000000
     22643       182  DOPC      H6Y            34.2756443580      -19.7083675141       -8.4777661718  MEMB      182             0.0000000000
     22644       182  DOPC      C37            34.6982538779      -21.2799664973       -9.8910750973  MEMB      182             0.0000000000
     22645       182  DOPC      H7X            34.0366337539      -21.9617060649       -9.3046892870  MEMB      182             0.0000000000
     22646       182  DOPC      H7Y            34.5461244080      -21.5056782850      -10.9718651094  MEMB      182             0.0000000000
     22647       182  DOPC      C38            36.1678816556      -21.5072906207       -9.5334091609  MEMB      182             0.0000000000
     22648       182  DOPC      H8X            36.3997261803      -20.9079344846       -8.6263083203  MEMB      182             0.0000000000
     22649       182  DOPC      H8Y            36.8085398120      -21.1208307572      -10.3559113542  MEMB      182             0.0000000000
     22650       182  DOPC      C39            36.3742376697      -22.9838126968       -9.3275317407  MEMB      182             0.0000000000
     22651       182  DOPC      H9X            36.4025002544      -23.5831735998      -10.2519832241  MEMB      182             0.0000000000
     22652       182  DOPC      C310           36.4457956446      -23.6073585030       -8.1407689015  MEMB      182             0.0000000000
     22653       182  DOPC      H10X           36.4178257341      -24.7019529405       -8.1397561497  MEMB      182             0.0000000000
     22654       182  DOPC      C311           36.3430759359      -22.9951770252       -6.7654515456  MEMB      182             0.0000000000
     22655       182  DOPC      H11X           36.4524499395      -21.8902712590       -6.7953787993  MEMB      182             0.0000000000
     22656       182  DOPC      H11Y           37.1771240191      -23.3538619322       -6.1326068669  MEMB      182             0.0000000000
     22657       182  DOPC      C312           34.9636081431      -23.3374807088       -6.1494679440  MEMB      182             0.0000000000
     22658       182  DOPC      H12X           34.6772288160      -24.3875716751       -6.3662298692  MEMB      182             0.0000000000
     22659       182  DOPC      H12Y           34.2444643409      -22.7038213253       -6.7152735138  MEMB      182             0.0000000000
     22660       182  DOPC      C313           34.7906934763      -23.0707753081       -4.6308566352  MEMB      182             0.0000000000
     22661       182  DOPC      H13X           33.7490235856      -23.0096433946       -4.2761754742  MEMB      182             0.0000000000
     22662       182  DOPC      H13Y           35.1344685020      -23.9030708473       -4.0156552722  MEMB      182             0.0000000000
     22663       182  DOPC      C314           35.3898219273      -21.7592518261       -4.1838646916  MEMB      182             0.0000000000
     22664       182  DOPC      H14X           35.2190211305      -21.6501221919       -3.0914453878  MEMB      182             0.0000000000
     22665       182  DOPC      H14Y           36.4868478155      -21.7452687503       -4.3569778589  MEMB      182             0.0000000000
     22666       182  DOPC      C315           34.6946309730      -20.6317120799       -4.9322563155  MEMB      182             0.0000000000
     22667       182  DOPC      H15X           33.6072181263      -20.6217369736       -4.7054353817  MEMB      182             0.0000000000
     22668       182  DOPC      H15Y           34.7830545442      -20.7660860493       -6.0350742710  MEMB      182             0.0000000000
     22669       182  DOPC      C316           35.3334403045      -19.3024946894       -4.6250758878  MEMB      182             0.0000000000
     22670       182  DOPC      H16X           36.3784013459      -19.3382644248       -5.0067989846  MEMB      182             0.0000000000
     22671       182  DOPC      H16Y           34.7309096813      -18.5631290586       -5.1967253880  MEMB      182             0.0000000000
     22672       182  DOPC      C317           35.2780916868      -18.8622311627       -3.1710767384  MEMB      182             0.0000000000
     22673       182  DOPC      H17X           35.7060152611      -19.6237659967       -2.4831225540  MEMB      182             0.0000000000
     22674       182  DOPC      H17Y           35.9090918659      -17.9553000902       -3.0746731639  MEMB      182             0.0000000000
     22675       182  DOPC      C318           33.8378434268      -18.5089457946       -2.8269917339  MEMB      182             0.0000000000
     22676       182  DOPC      H18X           33.4450593981      -17.7747986968       -3.5601615984  MEMB      182             0.0000000000
     22677       182  DOPC      H18Y           33.2035073500      -19.4060184421       -2.9069244364  MEMB      182             0.0000000000
     22678       182  DOPC      H18Z           33.7181058140      -18.0758441396       -1.8194026588  MEMB      182             0.0000000000
     22679       183  CHL1      C3            -34.3783548629      -21.2614982893      -17.2811751776  MEMB      183             0.0000000000
     22680       183  CHL1      H3            -34.7387600686      -22.3085858115      -17.2636295993  MEMB      183             0.0000000000
     22681       183  CHL1      O3            -34.3847984040      -20.8509869274      -18.6199261829  MEMB      183             0.0000000000
     22682       183  CHL1      H3'           -33.8285181664      -20.0674147497      -18.6024245147  MEMB      183             0.0000000000
     22683       183  CHL1      C4            -35.3095239989      -20.3321855041      -16.4905939033  MEMB      183             0.0000000000
     22684       183  CHL1      H4A           -35.0067644509      -19.2761149210      -16.6486949246  MEMB      183             0.0000000000
     22685       183  CHL1      H4B           -36.3390537877      -20.4308865349      -16.9017833129  MEMB      183             0.0000000000
     22686       183  CHL1      C5            -35.2560834797      -20.6587637241      -15.0166258938  MEMB      183             0.0000000000
     22687       183  CHL1      C6            -36.3762085386      -20.9735668897      -14.3405222229  MEMB      183             0.0000000000
     22688       183  CHL1      H6            -37.3460658500      -20.9662156838      -14.8559516543  MEMB      183             0.0000000000
     22689       183  CHL1      C7            -36.4036817806      -21.3141587596      -12.8820749347  MEMB      183             0.0000000000
     22690       183  CHL1      H7A           -37.2784647249      -20.8341963235      -12.3879445787  MEMB      183             0.0000000000
     22691       183  CHL1      H7B           -36.4962606807      -22.4120085557      -12.7395289342  MEMB      183             0.0000000000
     22692       183  CHL1      C8            -35.1046817900      -20.8317913094      -12.1952801412  MEMB      183             0.0000000000
     22693       183  CHL1      H8            -35.1642075562      -19.7377183452      -12.1441135897  MEMB      183             0.0000000000
     22694       183  CHL1      C14           -34.9886973978      -21.3824835875      -10.7984836709  MEMB      183             0.0000000000
     22695       183  CHL1      H14           -34.7312742709      -22.4613397890      -10.9489235293  MEMB      183             0.0000000000
     22696       183  CHL1      C15           -36.2417963275      -21.4537431283       -9.8976016248  MEMB      183             0.0000000000
     22697       183  CHL1      H15A          -36.9099856572      -20.5809784070      -10.0342772030  MEMB      183             0.0000000000
     22698       183  CHL1      H15B          -36.8110908881      -22.3854902054      -10.1165092157  MEMB      183             0.0000000000
     22699       183  CHL1      C16           -35.6644318188      -21.4872569401       -8.4766162575  MEMB      183             0.0000000000
     22700       183  CHL1      H16A          -36.0238069362      -20.6068233573       -7.9062853609  MEMB      183             0.0000000000
     22701       183  CHL1      H16B          -35.9568739483      -22.4153882811       -7.9414351305  MEMB      183             0.0000000000
     22702       183  CHL1      C17           -34.1156429162      -21.4309816460       -8.6484196265  MEMB      183             0.0000000000
     22703       183  CHL1      H17           -33.8177452423      -22.4358004197       -8.9570894206  MEMB      183             0.0000000000
     22704       183  CHL1      C13           -33.8263985780      -20.7930632547       -9.9956574632  MEMB      183             0.0000000000
     22705       183  CHL1      C18           -33.9214594910      -19.2757860270       -9.8229711192  MEMB      183             0.0000000000
     22706       183  CHL1      H18A          -34.9131112722      -19.0040232008       -9.4143994066  MEMB      183             0.0000000000
     22707       183  CHL1      H18B          -33.1345201985      -18.8864228251       -9.1478804691  MEMB      183             0.0000000000
     22708       183  CHL1      H18C          -33.7738875145      -18.7973511845      -10.8027671267  MEMB      183             0.0000000000
     22709       183  CHL1      C12           -32.5268852133      -21.2361823938      -10.7002058098  MEMB      183             0.0000000000
     22710       183  CHL1      H12A          -31.6462204434      -20.7523392230      -10.2353648003  MEMB      183             0.0000000000
     22711       183  CHL1      H12B          -32.4162654742      -22.3384847317      -10.6247468873  MEMB      183             0.0000000000
     22712       183  CHL1      C11           -32.5253550561      -20.8474116584      -12.1811895909  MEMB      183             0.0000000000
     22713       183  CHL1      H11A          -32.3543770222      -19.7504452442      -12.1503225254  MEMB      183             0.0000000000
     22714       183  CHL1      H11B          -31.6513798198      -21.3084970019      -12.6853752286  MEMB      183             0.0000000000
     22715       183  CHL1      C9            -33.8289850634      -21.2199867157      -12.9605531663  MEMB      183             0.0000000000
     22716       183  CHL1      H9            -33.8626484273      -22.3335708872      -13.0165701741  MEMB      183             0.0000000000
     22717       183  CHL1      C10           -33.8256032608      -20.7210066085      -14.4215615601  MEMB      183             0.0000000000
     22718       183  CHL1      C19           -33.1807365205      -19.3335360784      -14.4104279464  MEMB      183             0.0000000000
     22719       183  CHL1      H19A          -33.3806347250      -18.7744887980      -15.3443382773  MEMB      183             0.0000000000
     22720       183  CHL1      H19B          -33.5730531197      -18.7827578408      -13.5304648320  MEMB      183             0.0000000000
     22721       183  CHL1      H19C          -32.0787508114      -19.3926749777      -14.3052031115  MEMB      183             0.0000000000
     22722       183  CHL1      C1            -32.8820131720      -21.5887095508      -15.2942150624  MEMB      183             0.0000000000
     22723       183  CHL1      H1A           -31.8404483922      -21.4653008877      -14.9255493349  MEMB      183             0.0000000000
     22724       183  CHL1      H1B           -33.1560771742      -22.6571894159      -15.1744913751  MEMB      183             0.0000000000
     22725       183  CHL1      C2            -32.9348636639      -21.1951695930      -16.7765025144  MEMB      183             0.0000000000
     22726       183  CHL1      H2A           -32.2941005626      -21.8741663560      -17.3755522604  MEMB      183             0.0000000000
     22727       183  CHL1      H2B           -32.5510839145      -20.1589982744      -16.9070441679  MEMB      183             0.0000000000
     22728       183  CHL1      C20           -33.3357704801      -21.0367342672       -7.3776836334  MEMB      183             0.0000000000
     22729       183  CHL1      H20           -33.3595300546      -19.9303488475       -7.2695684286  MEMB      183             0.0000000000
     22730       183  CHL1      C21           -31.8625285386      -21.4849452401       -7.5035737136  MEMB      183             0.0000000000
     22731       183  CHL1      H21A          -31.7942933203      -22.5742249948       -7.7050821799  MEMB      183             0.0000000000
     22732       183  CHL1      H21B          -31.3029763568      -21.2613371765       -6.5753641782  MEMB      183             0.0000000000
     22733       183  CHL1      H21C          -31.3391262880      -20.9306658855       -8.2998320726  MEMB      183             0.0000000000
     22734       183  CHL1      C22           -33.9823643886      -21.6133533621       -6.0823438606  MEMB      183             0.0000000000
     22735       183  CHL1      H22A          -34.9280663786      -21.0615663509       -5.8893019964  MEMB      183             0.0000000000
     22736       183  CHL1      H22B          -34.2645893447      -22.6732697645       -6.2451141496  MEMB      183             0.0000000000
     22737       183  CHL1      C23           -33.1408158184      -21.5671128795       -4.7838722586  MEMB      183             0.0000000000
     22738       183  CHL1      H23A          -32.1982363542      -22.1432744338       -4.9157597361  MEMB      183             0.0000000000
     22739       183  CHL1      H23B          -32.8908377212      -20.5181334146       -4.5286919849  MEMB      183             0.0000000000
     22740       183  CHL1      C24           -33.9234133011      -22.2434244785       -3.6463312808  MEMB      183             0.0000000000
     22741       183  CHL1      H24A          -34.9336485499      -21.7823920096       -3.5908612129  MEMB      183             0.0000000000
     22742       183  CHL1      H24B          -34.0240719574      -23.2814470539       -4.0130672003  MEMB      183             0.0000000000
     22743       183  CHL1      C25           -33.3039596390      -22.2555464377       -2.2249013530  MEMB      183             0.0000000000
     22744       183  CHL1      H25           -32.7759425968      -21.2857791758       -2.0794667903  MEMB      183             0.0000000000
     22745       183  CHL1      C26           -34.3903125181      -22.3678140404       -1.1370030078  MEMB      183             0.0000000000
     22746       183  CHL1      H26A          -35.1871574562      -21.6143043716       -1.2940578504  MEMB      183             0.0000000000
     22747       183  CHL1      H26B          -34.8526652937      -23.3735686108       -1.1641137166  MEMB      183             0.0000000000
     22748       183  CHL1      H26C          -33.9507596826      -22.2258273215       -0.1270164513  MEMB      183             0.0000000000
     22749       183  CHL1      C27           -32.3086789692      -23.4074295671       -2.0159521004  MEMB      183             0.0000000000
     22750       183  CHL1      H27A          -31.5456564960      -23.4331225388       -2.8195792653  MEMB      183             0.0000000000
     22751       183  CHL1      H27B          -31.7979541297      -23.3072990230       -1.0347355811  MEMB      183             0.0000000000
     22752       183  CHL1      H27C          -32.8474512939      -24.3798800722       -2.0068329371  MEMB      183             0.0000000000
     22753       184  DOPC      N             -20.9962929330      -34.4734441687      -21.2310462277  MEMB      184             0.0000000000
     22754       184  DOPC      C12           -20.1809161642      -35.5995085816      -20.6121607969  MEMB      184             0.0000000000
     22755       184  DOPC      H12A          -19.1572155740      -35.2233997164      -20.5309093150  MEMB      184             0.0000000000
     22756       184  DOPC      H12B          -20.1200884182      -36.4434791311      -21.2763151900  MEMB      184             0.0000000000
     22757       184  DOPC      C13           -22.4563084082      -34.7044413620      -21.0132402140  MEMB      184             0.0000000000
     22758       184  DOPC      H13A          -23.0390961000      -33.8824120497      -21.3904583962  MEMB      184             0.0000000000
     22759       184  DOPC      H13B          -22.7821894486      -35.6070200725      -21.5209448924  MEMB      184             0.0000000000
     22760       184  DOPC      H13C          -22.6207416385      -34.8356906091      -19.9444871161  MEMB      184             0.0000000000
     22761       184  DOPC      C14           -20.6236287741      -34.3032630920      -22.6759227884  MEMB      184             0.0000000000
     22762       184  DOPC      H14A          -19.5711112087      -33.9953044038      -22.7304614888  MEMB      184             0.0000000000
     22763       184  DOPC      H14B          -20.6968178028      -35.2140586209      -23.2514152790  MEMB      184             0.0000000000
     22764       184  DOPC      H14C          -21.2002914437      -33.5426038386      -23.1804833658  MEMB      184             0.0000000000
     22765       184  DOPC      C15           -20.5222801168      -33.2472781086      -20.5120012235  MEMB      184             0.0000000000
     22766       184  DOPC      H15A          -19.4468159750      -33.1440628309      -20.6786490112  MEMB      184             0.0000000000
     22767       184  DOPC      H15B          -20.6278865757      -33.3717759714      -19.4263212991  MEMB      184             0.0000000000
     22768       184  DOPC      H15C          -21.0005980061      -32.3625141658      -20.8653694976  MEMB      184             0.0000000000
     22769       184  DOPC      C11           -20.5485896976      -36.0733052769      -19.1926779207  MEMB      184             0.0000000000
     22770       184  DOPC      H11A          -21.5554330619      -36.5409215422      -19.1724034506  MEMB      184             0.0000000000
     22771       184  DOPC      H11B          -19.8047934219      -36.8632725713      -18.9446877224  MEMB      184             0.0000000000
     22772       184  DOPC      P             -20.2233963635      -35.2781717194      -16.7312941924  MEMB      184             0.0000000000
     22773       184  DOPC      O13           -19.8974571604      -34.0077562041      -16.0730399725  MEMB      184             0.0000000000
     22774       184  DOPC      O14           -19.2648716030      -36.3917083476      -16.5780252185  MEMB      184             0.0000000000
     22775       184  DOPC      O12           -20.4688789601      -34.9851551039      -18.2745974475  MEMB      184             0.0000000000
     22776       184  DOPC      O11           -21.6767339936      -35.7961777332      -16.3786020429  MEMB      184             0.0000000000
     22777       184  DOPC      C1            -22.8215997306      -35.1952028950      -16.9919399045  MEMB      184             0.0000000000
     22778       184  DOPC      HA            -23.0960081678      -35.7427759057      -17.9130065645  MEMB      184             0.0000000000
     22779       184  DOPC      HB            -22.6434647232      -34.1276700972      -17.2681880559  MEMB      184             0.0000000000
     22780       184  DOPC      C2            -24.0218797647      -35.2324971356      -16.0209392698  MEMB      184             0.0000000000
     22781       184  DOPC      HS            -24.7473909148      -34.4410469699      -16.3115094389  MEMB      184             0.0000000000
     22782       184  DOPC      O21           -23.6407156970      -35.0030651690      -14.6588863823  MEMB      184             0.0000000000
     22783       184  DOPC      C21           -22.8140538176      -34.0090645509      -14.3715780742  MEMB      184             0.0000000000
     22784       184  DOPC      O22           -22.2776202450      -33.2521806830      -15.1460229624  MEMB      184             0.0000000000
     22785       184  DOPC      C22           -22.7452422011      -33.8090593645      -12.8612656222  MEMB      184             0.0000000000
     22786       184  DOPC      H2R           -23.3471786815      -34.5644596427      -12.3548316930  MEMB      184             0.0000000000
     22787       184  DOPC      H2S           -23.1797370771      -32.8225100255      -12.6193071876  MEMB      184             0.0000000000
     22788       184  DOPC      C3            -24.7444896340      -36.6183990643      -16.1562886069  MEMB      184             0.0000000000
     22789       184  DOPC      HX            -25.3628329521      -36.5511547816      -17.0656391958  MEMB      184             0.0000000000
     22790       184  DOPC      HY            -25.4925212392      -36.7511134141      -15.3464837562  MEMB      184             0.0000000000
     22791       184  DOPC      O31           -23.8252159953      -37.7452159242      -16.3002186920  MEMB      184             0.0000000000
     22792       184  DOPC      C31           -23.4239780926      -38.1760854763      -15.0897602564  MEMB      184             0.0000000000
     22793       184  DOPC      O32           -23.9724586073      -37.8457842866      -14.0585808200  MEMB      184             0.0000000000
     22794       184  DOPC      C32           -22.2302187869      -39.0968353123      -15.0552276361  MEMB      184             0.0000000000
     22795       184  DOPC      H2X           -22.3392955835      -39.9510488506      -15.7510159831  MEMB      184             0.0000000000
     22796       184  DOPC      H2Y           -21.3402325544      -38.4830205199      -15.3266374960  MEMB      184             0.0000000000
     22797       184  DOPC      C23           -21.3100034739      -33.9969616810      -12.3607284547  MEMB      184             0.0000000000
     22798       184  DOPC      H3R           -21.2300038076      -33.6299645587      -11.3135063521  MEMB      184             0.0000000000
     22799       184  DOPC      H3S           -20.5932367109      -33.4226929799      -12.9927065871  MEMB      184             0.0000000000
     22800       184  DOPC      C24           -20.9972018489      -35.4904538026      -12.4131487898  MEMB      184             0.0000000000
     22801       184  DOPC      H4R           -21.1354798924      -35.8427782983      -13.4669859493  MEMB      184             0.0000000000
     22802       184  DOPC      H4S           -21.7351399755      -36.0547242834      -11.8012890909  MEMB      184             0.0000000000
     22803       184  DOPC      C25           -19.5670037836      -35.8515712946      -12.0169964003  MEMB      184             0.0000000000
     22804       184  DOPC      H5R           -18.8704305864      -35.3227143500      -12.7071285972  MEMB      184             0.0000000000
     22805       184  DOPC      H5S           -19.4894808181      -36.9375481981      -12.2267057079  MEMB      184             0.0000000000
     22806       184  DOPC      C26           -19.1690060478      -35.6176707654      -10.5464861894  MEMB      184             0.0000000000
     22807       184  DOPC      H6R           -19.0788771592      -34.5247861805      -10.3614198148  MEMB      184             0.0000000000
     22808       184  DOPC      H6S           -18.1603182889      -36.0637475233      -10.3910080433  MEMB      184             0.0000000000
     22809       184  DOPC      C27           -20.1418724320      -36.2605726502       -9.5437524613  MEMB      184             0.0000000000
     22810       184  DOPC      H7R           -20.8133177026      -36.9331749808      -10.1286617955  MEMB      184             0.0000000000
     22811       184  DOPC      H7S           -20.7841279869      -35.4806452212       -9.0862186029  MEMB      184             0.0000000000
     22812       184  DOPC      C28           -19.5144102010      -37.1847007282       -8.4676603263  MEMB      184             0.0000000000
     22813       184  DOPC      H8R           -18.6148590299      -37.6805480504       -8.8793644912  MEMB      184             0.0000000000
     22814       184  DOPC      H8S           -20.2503149561      -38.0111007299       -8.3294207539  MEMB      184             0.0000000000
     22815       184  DOPC      C29           -19.1851731526      -36.6177915204       -7.1097112243  MEMB      184             0.0000000000
     22816       184  DOPC      H9R           -18.2837389491      -35.9896931981       -7.0463511031  MEMB      184             0.0000000000
     22817       184  DOPC      C210          -20.0257871516      -36.6554972259       -6.0617475889  MEMB      184             0.0000000000
     22818       184  DOPC      H10R          -19.7722228128      -36.1304682766       -5.1254301434  MEMB      184             0.0000000000
     22819       184  DOPC      C211          -21.4077340514      -37.2477690797       -6.1105261219  MEMB      184             0.0000000000
     22820       184  DOPC      H11R          -21.8153931817      -37.3548682726       -5.0802579185  MEMB      184             0.0000000000
     22821       184  DOPC      H11S          -21.4185986212      -38.2692886171       -6.5483331350  MEMB      184             0.0000000000
     22822       184  DOPC      C212          -22.3108288569      -36.2975727795       -6.9490328758  MEMB      184             0.0000000000
     22823       184  DOPC      H12R          -23.3643004864      -36.4762257575       -6.6176059812  MEMB      184             0.0000000000
     22824       184  DOPC      H12S          -22.2798089847      -36.5970908971       -8.0121625113  MEMB      184             0.0000000000
     22825       184  DOPC      C213          -21.9823075659      -34.7733750548       -6.8150907060  MEMB      184             0.0000000000
     22826       184  DOPC      H13R          -22.3787253152      -34.1412170139       -7.6220640933  MEMB      184             0.0000000000
     22827       184  DOPC      H13S          -20.9078159396      -34.5356188084       -6.8412707816  MEMB      184             0.0000000000
     22828       184  DOPC      C214          -22.5763504038      -34.4330924165       -5.4839785313  MEMB      184             0.0000000000
     22829       184  DOPC      H14R          -22.1068950828      -35.2261732585       -4.8678616483  MEMB      184             0.0000000000
     22830       184  DOPC      H14S          -23.6812479063      -34.6003280412       -5.5313067003  MEMB      184             0.0000000000
     22831       184  DOPC      C215          -22.2920077666      -33.2158847542       -4.6302783277  MEMB      184             0.0000000000
     22832       184  DOPC      H15R          -22.5603007657      -33.5164287742       -3.5984306019  MEMB      184             0.0000000000
     22833       184  DOPC      H15S          -23.0644202077      -32.4743038410       -4.8131884434  MEMB      184             0.0000000000
     22834       184  DOPC      C216          -20.8673014417      -32.6810459487       -4.6170227491  MEMB      184             0.0000000000
     22835       184  DOPC      H16R          -20.9361988676      -31.5724005873       -4.4881321807  MEMB      184             0.0000000000
     22836       184  DOPC      H16S          -20.3337517771      -32.8642064821       -5.5735850428  MEMB      184             0.0000000000
     22837       184  DOPC      C217          -20.1371961363      -33.2153363791       -3.3897003864  MEMB      184             0.0000000000
     22838       184  DOPC      H17R          -19.5300563230      -34.1203264250       -3.5990241732  MEMB      184             0.0000000000
     22839       184  DOPC      H17S          -20.9071324698      -33.5006019271       -2.6377622268  MEMB      184             0.0000000000
     22840       184  DOPC      C218          -19.3512650584      -32.1544012197       -2.6687564158  MEMB      184             0.0000000000
     22841       184  DOPC      H18R          -19.2483092866      -32.3777544142       -1.5882166664  MEMB      184             0.0000000000
     22842       184  DOPC      H18S          -19.9146398216      -31.1971389754       -2.7163994527  MEMB      184             0.0000000000
     22843       184  DOPC      H18T          -18.3384175518      -32.0372684244       -3.1050295744  MEMB      184             0.0000000000
     22844       184  DOPC      C33           -22.0966445668      -39.5807331387      -13.5845619695  MEMB      184             0.0000000000
     22845       184  DOPC      H3X           -22.1263308465      -38.7177964052      -12.8753612375  MEMB      184             0.0000000000
     22846       184  DOPC      H3Y           -21.1115259292      -40.0646650131      -13.4470577665  MEMB      184             0.0000000000
     22847       184  DOPC      C34           -23.1669038712      -40.6041369293      -13.1627519642  MEMB      184             0.0000000000
     22848       184  DOPC      H4X           -22.8454607945      -41.5896959260      -13.5699231115  MEMB      184             0.0000000000
     22849       184  DOPC      H4Y           -24.1386163444      -40.3542178438      -13.6362639982  MEMB      184             0.0000000000
     22850       184  DOPC      C35           -23.3790977907      -40.6633667693      -11.6358207912  MEMB      184             0.0000000000
     22851       184  DOPC      H5X           -22.4277265685      -40.3950451201      -11.1468386022  MEMB      184             0.0000000000
     22852       184  DOPC      H5Y           -23.6785946757      -41.6929917378      -11.3365958346  MEMB      184             0.0000000000
     22853       184  DOPC      C36           -24.4243470050      -39.6704099429      -11.0994807183  MEMB      184             0.0000000000
     22854       184  DOPC      H6X           -24.0607792469      -38.6447729542      -11.2683138922  MEMB      184             0.0000000000
     22855       184  DOPC      H6Y           -25.2853538510      -39.7897731609      -11.7504454514  MEMB      184             0.0000000000
     22856       184  DOPC      C37           -24.9907832180      -39.8635711465       -9.6793970098  MEMB      184             0.0000000000
     22857       184  DOPC      H7X           -25.5548469157      -38.9739194029       -9.3282893516  MEMB      184             0.0000000000
     22858       184  DOPC      H7Y           -25.7062036435      -40.7096733660       -9.7299450468  MEMB      184             0.0000000000
     22859       184  DOPC      C38           -23.9349372610      -40.2160440110       -8.6549697918  MEMB      184             0.0000000000
     22860       184  DOPC      H8X           -23.4141545826      -39.3122999544       -8.2719316059  MEMB      184             0.0000000000
     22861       184  DOPC      H8Y           -23.2562119952      -40.8525336765       -9.2441034589  MEMB      184             0.0000000000
     22862       184  DOPC      C39           -24.4562507001      -41.1213507259       -7.5956713847  MEMB      184             0.0000000000
     22863       184  DOPC      H9X           -24.9392583159      -42.0091099906       -8.0424408798  MEMB      184             0.0000000000
     22864       184  DOPC      C310          -24.3275788432      -40.9926916783       -6.2572621840  MEMB      184             0.0000000000
     22865       184  DOPC      H10X          -24.6891894047      -41.8265803294       -5.6308435891  MEMB      184             0.0000000000
     22866       184  DOPC      C311          -23.6120109621      -39.8682851263       -5.5045497676  MEMB      184             0.0000000000
     22867       184  DOPC      H11X          -23.7072891005      -38.9100094798       -6.0469031359  MEMB      184             0.0000000000
     22868       184  DOPC      H11Y          -22.5132717681      -39.9615885083       -5.3424642389  MEMB      184             0.0000000000
     22869       184  DOPC      C312          -24.0653803567      -39.7885692846       -4.0603485355  MEMB      184             0.0000000000
     22870       184  DOPC      H12X          -24.5463607328      -40.7528828485       -3.7892525058  MEMB      184             0.0000000000
     22871       184  DOPC      H12Y          -24.8149569516      -38.9942381210       -4.0891948534  MEMB      184             0.0000000000
     22872       184  DOPC      C313          -22.9680027794      -39.5154936930       -3.0057751355  MEMB      184             0.0000000000
     22873       184  DOPC      H13X          -22.3549082921      -40.4367161518       -3.0287303112  MEMB      184             0.0000000000
     22874       184  DOPC      H13Y          -22.3617971468      -38.6467825444       -3.3238351792  MEMB      184             0.0000000000
     22875       184  DOPC      C314          -23.4794078274      -39.2941764498       -1.5546593425  MEMB      184             0.0000000000
     22876       184  DOPC      H14X          -24.3704338391      -38.6529014017       -1.6931064831  MEMB      184             0.0000000000
     22877       184  DOPC      H14Y          -23.8202799608      -40.2752671199       -1.1616620460  MEMB      184             0.0000000000
     22878       184  DOPC      C315          -22.6326602406      -38.5916656920       -0.4294688915  MEMB      184             0.0000000000
     22879       184  DOPC      H15X          -22.7095639639      -37.5010318830       -0.5191158911  MEMB      184             0.0000000000
     22880       184  DOPC      H15Y          -21.5501109265      -38.7307476064       -0.3884572708  MEMB      184             0.0000000000
     22881       184  DOPC      C316          -23.0213828920      -38.9577051122        1.0119824418  MEMB      184             0.0000000000
     22882       184  DOPC      H16X          -23.6111683964      -39.9056569559        1.0047710351  MEMB      184             0.0000000000
     22883       184  DOPC      H16Y          -22.1124030264      -39.0379662035        1.6376439163  MEMB      184             0.0000000000
     22884       184  DOPC      C317          -23.7919245515      -37.8498473767        1.6347455207  MEMB      184             0.0000000000
     22885       184  DOPC      H17X          -24.0894110891      -37.8377179220        2.6929231567  MEMB      184             0.0000000000
     22886       184  DOPC      H17Y          -23.1160715656      -36.9685818192        1.5129152691  MEMB      184             0.0000000000
     22887       184  DOPC      C318          -25.0116506635      -37.8026251083        0.7888078515  MEMB      184             0.0000000000
     22888       184  DOPC      H18X          -24.6658680820      -37.0044464198        0.0989525297  MEMB      184             0.0000000000
     22889       184  DOPC      H18Y          -25.1494473517      -38.7589002541        0.2431551975  MEMB      184             0.0000000000
     22890       184  DOPC      H18Z          -25.9592959869      -37.5173270461        1.2810965925  MEMB      184             0.0000000000
     22891       185  CHL1      C3             30.0555400322      -27.6468275401      -17.6597001084  MEMB      185             0.0000000000
     22892       185  CHL1      H3             30.3755951868      -28.7162239381      -17.6177579161  MEMB      185             0.0000000000
     22893       185  CHL1      O3             29.6335149754      -27.3389191015      -18.9742667755  MEMB      185             0.0000000000
     22894       185  CHL1      H3'            29.2713681979      -28.1763883441      -19.3442169441  MEMB      185             0.0000000000
     22895       185  CHL1      C4             28.8561471844      -27.4122037929      -16.7535441489  MEMB      185             0.0000000000
     22896       185  CHL1      H4A            28.5117770658      -26.3619123005      -16.8594818292  MEMB      185             0.0000000000
     22897       185  CHL1      H4B            28.0157861262      -28.0445434775      -17.1249449889  MEMB      185             0.0000000000
     22898       185  CHL1      C5             29.2231057254      -27.7327710531      -15.3269249678  MEMB      185             0.0000000000
     22899       185  CHL1      C6             28.5105756936      -28.6306109556      -14.6596360484  MEMB      185             0.0000000000
     22900       185  CHL1      H6             27.6269392706      -29.0737946768      -15.1548274486  MEMB      185             0.0000000000
     22901       185  CHL1      C7             28.7409775219      -28.9573684761      -13.2241724826  MEMB      185             0.0000000000
     22902       185  CHL1      H7A            27.8047253521      -28.6040377914      -12.7353365332  MEMB      185             0.0000000000
     22903       185  CHL1      H7B            28.8611139917      -30.0449915799      -13.0674090541  MEMB      185             0.0000000000
     22904       185  CHL1      C8             29.8409636752      -28.1451329131      -12.5039186671  MEMB      185             0.0000000000
     22905       185  CHL1      H8             29.2575767874      -27.2478522716      -12.2171204484  MEMB      185             0.0000000000
     22906       185  CHL1      C14            30.5411280906      -28.8167101657      -11.2935462056  MEMB      185             0.0000000000
     22907       185  CHL1      H14            31.3926056795      -29.4125008618      -11.7126668724  MEMB      185             0.0000000000
     22908       185  CHL1      C15            29.8356213596      -29.8492026059      -10.3948053626  MEMB      185             0.0000000000
     22909       185  CHL1      H15A           28.7730855866      -29.5885046226      -10.3617843876  MEMB      185             0.0000000000
     22910       185  CHL1      H15B           29.9252226757      -30.8889778980      -10.7781780938  MEMB      185             0.0000000000
     22911       185  CHL1      C16            30.4641306600      -29.6819271952       -8.9872260296  MEMB      185             0.0000000000
     22912       185  CHL1      H16A           29.6391167573      -29.3900053617       -8.3125519437  MEMB      185             0.0000000000
     22913       185  CHL1      H16B           30.9033275765      -30.6256200799       -8.6087163618  MEMB      185             0.0000000000
     22914       185  CHL1      C17            31.5427509288      -28.5520373672       -9.0715344170  MEMB      185             0.0000000000
     22915       185  CHL1      H17            32.5044247518      -29.0679067428       -9.2885329998  MEMB      185             0.0000000000
     22916       185  CHL1      C13            31.1556929010      -27.7689594746      -10.3609254642  MEMB      185             0.0000000000
     22917       185  CHL1      C18            30.0304429686      -26.7679378032       -9.9425408336  MEMB      185             0.0000000000
     22918       185  CHL1      H18A           29.1689382885      -27.3234481087       -9.5650585157  MEMB      185             0.0000000000
     22919       185  CHL1      H18B           30.3166858016      -26.0796570891       -9.1420071502  MEMB      185             0.0000000000
     22920       185  CHL1      H18C           29.6724917668      -26.1075130150      -10.7484649913  MEMB      185             0.0000000000
     22921       185  CHL1      C12            32.3225093764      -27.1759485662      -11.1939936872  MEMB      185             0.0000000000
     22922       185  CHL1      H12A           32.8678580851      -26.3866316882      -10.6564758715  MEMB      185             0.0000000000
     22923       185  CHL1      H12B           33.0741054424      -27.9706298632      -11.3775023958  MEMB      185             0.0000000000
     22924       185  CHL1      C11            31.8366435480      -26.6175425144      -12.5520645649  MEMB      185             0.0000000000
     22925       185  CHL1      H11A           31.2313631430      -25.7253999266      -12.2941492559  MEMB      185             0.0000000000
     22926       185  CHL1      H11B           32.7067644128      -26.2845508578      -13.1508522796  MEMB      185             0.0000000000
     22927       185  CHL1      C9             30.9478680196      -27.5900386878      -13.3934885209  MEMB      185             0.0000000000
     22928       185  CHL1      H9             31.5944621423      -28.4603559334      -13.6566565835  MEMB      185             0.0000000000
     22929       185  CHL1      C10            30.4514841697      -27.0171309339      -14.7513527540  MEMB      185             0.0000000000
     22930       185  CHL1      C19            29.9920814192      -25.5598778318      -14.5824358702  MEMB      185             0.0000000000
     22931       185  CHL1      H19A           29.1267482286      -25.4714550071      -13.8948775597  MEMB      185             0.0000000000
     22932       185  CHL1      H19B           30.7897694188      -24.9283105176      -14.1778577284  MEMB      185             0.0000000000
     22933       185  CHL1      H19C           29.7337572246      -25.1196145885      -15.5620998775  MEMB      185             0.0000000000
     22934       185  CHL1      C1             31.6228313382      -27.0922541741      -15.7669889100  MEMB      185             0.0000000000
     22935       185  CHL1      H1A            32.4372562734      -26.4170960623      -15.4301242150  MEMB      185             0.0000000000
     22936       185  CHL1      H1B            32.0323454773      -28.1277346194      -15.7423154207  MEMB      185             0.0000000000
     22937       185  CHL1      C2             31.2424909179      -26.7733595510      -17.2265939959  MEMB      185             0.0000000000
     22938       185  CHL1      H2A            32.1208553315      -26.9720310891      -17.8775387894  MEMB      185             0.0000000000
     22939       185  CHL1      H2B            30.9822732299      -25.6990357888      -17.3241167272  MEMB      185             0.0000000000
     22940       185  CHL1      C20            31.7581155677      -27.6758229548       -7.7921011141  MEMB      185             0.0000000000
     22941       185  CHL1      H20            30.7951819660      -27.1653738890       -7.5574483636  MEMB      185             0.0000000000
     22942       185  CHL1      C21            32.8196087269      -26.6076230413       -8.0907621411  MEMB      185             0.0000000000
     22943       185  CHL1      H21A           33.6634081774      -27.0004622538       -8.6961261428  MEMB      185             0.0000000000
     22944       185  CHL1      H21B           33.2151363578      -26.1471979178       -7.1674639302  MEMB      185             0.0000000000
     22945       185  CHL1      H21C           32.3495939348      -25.7982482467       -8.6515459988  MEMB      185             0.0000000000
     22946       185  CHL1      C22            32.1506442309      -28.3198368974       -6.4417252114  MEMB      185             0.0000000000
     22947       185  CHL1      H22A           31.6037808069      -29.2701923072       -6.3073000100  MEMB      185             0.0000000000
     22948       185  CHL1      H22B           33.2292324592      -28.5714804032       -6.4494531017  MEMB      185             0.0000000000
     22949       185  CHL1      C23            31.8528998166      -27.4104339619       -5.2048982268  MEMB      185             0.0000000000
     22950       185  CHL1      H23A           32.7270691958      -26.7459681353       -5.0118262166  MEMB      185             0.0000000000
     22951       185  CHL1      H23B           30.9895648988      -26.7472818673       -5.4164972056  MEMB      185             0.0000000000
     22952       185  CHL1      C24            31.5911303766      -28.3029986112       -3.9745985779  MEMB      185             0.0000000000
     22953       185  CHL1      H24A           30.7615098637      -29.0125545310       -4.1788326525  MEMB      185             0.0000000000
     22954       185  CHL1      H24B           32.5337770402      -28.8820680411       -3.8792530802  MEMB      185             0.0000000000
     22955       185  CHL1      C25            31.3280311290      -27.7220529381       -2.5669189661  MEMB      185             0.0000000000
     22956       185  CHL1      H25            31.2979801413      -28.6095990559       -1.8801257293  MEMB      185             0.0000000000
     22957       185  CHL1      C26            32.4974164106      -26.8638677214       -2.0810472491  MEMB      185             0.0000000000
     22958       185  CHL1      H26A           33.4667059363      -27.3706328607       -2.2456620869  MEMB      185             0.0000000000
     22959       185  CHL1      H26B           32.5604153470      -25.8842235391       -2.5909610995  MEMB      185             0.0000000000
     22960       185  CHL1      H26C           32.4048846720      -26.6927826769       -0.9898628392  MEMB      185             0.0000000000
     22961       185  CHL1      C27            29.9512806508      -27.0576361367       -2.3959438690  MEMB      185             0.0000000000
     22962       185  CHL1      H27A           29.1267495958      -27.7831459629       -2.4823184766  MEMB      185             0.0000000000
     22963       185  CHL1      H27B           29.8765414351      -26.5864276874       -1.3949212163  MEMB      185             0.0000000000
     22964       185  CHL1      H27C           29.7843725770      -26.2763667505       -3.1609221636  MEMB      185             0.0000000000
     22965       186  DOPE      N             -38.6112513671      -17.5694042107      -20.1382928182  MEMB      186             0.0000000000
     22966       186  DOPE      HN1           -37.9235215038      -17.9843756457      -20.8018216006  MEMB      186             0.0000000000
     22967       186  DOPE      HN2           -38.0687319788      -17.0160892284      -19.4319088446  MEMB      186             0.0000000000
     22968       186  DOPE      HN3           -39.2245416744      -18.2778094262      -19.6874234918  MEMB      186             0.0000000000
     22969       186  DOPE      C12           -39.4401940805      -16.4927460621      -20.7625634414  MEMB      186             0.0000000000
     22970       186  DOPE      H12A          -40.5120341786      -16.7951616313      -20.7824273036  MEMB      186             0.0000000000
     22971       186  DOPE      H12B          -39.0501279079      -16.3154817113      -21.7818047891  MEMB      186             0.0000000000
     22972       186  DOPE      C11           -39.2129986820      -15.2401942721      -19.9271292456  MEMB      186             0.0000000000
     22973       186  DOPE      H11A          -39.6349601497      -15.3944387887      -18.9054555278  MEMB      186             0.0000000000
     22974       186  DOPE      H11B          -39.7924847972      -14.4061058060      -20.4059578032  MEMB      186             0.0000000000
     22975       186  DOPE      P             -37.4810057004      -13.4512890075      -19.4589465540  MEMB      186             0.0000000000
     22976       186  DOPE      O13           -38.5720598425      -13.0276542727      -18.5718657492  MEMB      186             0.0000000000
     22977       186  DOPE      O14           -37.3420820168      -12.7066245301      -20.7252027874  MEMB      186             0.0000000000
     22978       186  DOPE      O11           -36.0866175395      -13.4216245569      -18.6846270207  MEMB      186             0.0000000000
     22979       186  DOPE      O12           -37.7969036544      -14.9700015130      -19.8261563829  MEMB      186             0.0000000000
     22980       186  DOPE      C1            -34.9742843998      -12.6216719833      -19.1586473008  MEMB      186             0.0000000000
     22981       186  DOPE      HA            -35.3194122558      -11.6222380442      -19.4665541817  MEMB      186             0.0000000000
     22982       186  DOPE      HB            -34.5602950407      -13.1221453844      -20.0682287942  MEMB      186             0.0000000000
     22983       186  DOPE      C2            -33.7384763282      -12.4606510509      -18.1602048394  MEMB      186             0.0000000000
     22984       186  DOPE      HS            -32.8079378898      -12.5566911563      -18.7648227013  MEMB      186             0.0000000000
     22985       186  DOPE      O21           -33.7354801193      -13.4924793365      -17.1704009932  MEMB      186             0.0000000000
     22986       186  DOPE      C21           -33.9159200936      -14.7465992078      -17.5334211193  MEMB      186             0.0000000000
     22987       186  DOPE      O22           -33.7948288897      -15.2106763082      -18.6573389334  MEMB      186             0.0000000000
     22988       186  DOPE      C22           -34.0030840425      -15.5915176403      -16.2271117913  MEMB      186             0.0000000000
     22989       186  DOPE      H2R           -33.5039863831      -15.0218399712      -15.4174036150  MEMB      186             0.0000000000
     22990       186  DOPE      H2S           -33.3737016036      -16.4858334506      -16.4228952436  MEMB      186             0.0000000000
     22991       186  DOPE      C3            -33.5772579079      -11.0737717592      -17.3481424484  MEMB      186             0.0000000000
     22992       186  DOPE      HX            -33.0111817945      -10.3594427217      -17.9710824650  MEMB      186             0.0000000000
     22993       186  DOPE      HY            -32.8741327230      -11.3412408301      -16.5256856500  MEMB      186             0.0000000000
     22994       186  DOPE      O31           -34.7784044673      -10.4131750809      -16.8170084915  MEMB      186             0.0000000000
     22995       186  DOPE      C31           -34.6045725175       -9.7018128585      -15.6405975169  MEMB      186             0.0000000000
     22996       186  DOPE      O32           -33.4987426613       -9.5409756353      -15.1605873425  MEMB      186             0.0000000000
     22997       186  DOPE      C32           -35.9454548763       -9.2242707385      -14.9342560960  MEMB      186             0.0000000000
     22998       186  DOPE      H2X           -35.7104810291       -8.1864050672      -14.6136001363  MEMB      186             0.0000000000
     22999       186  DOPE      H2Y           -36.6747136524       -9.1103897659      -15.7318730522  MEMB      186             0.0000000000
     23000       186  DOPE      C23           -35.3798731674      -16.1150789284      -15.7010787954  MEMB      186             0.0000000000
     23001       186  DOPE      H3R           -35.7858901100      -16.8448487194      -16.4368204087  MEMB      186             0.0000000000
     23002       186  DOPE      H3S           -36.1800586616      -15.4022865802      -15.4876192139  MEMB      186             0.0000000000
     23003       186  DOPE      C24           -35.2297833014      -16.7895270970      -14.3393645243  MEMB      186             0.0000000000
     23004       186  DOPE      H4R           -34.2338595379      -17.2257124801      -14.4010099315  MEMB      186             0.0000000000
     23005       186  DOPE      H4S           -36.0132206879      -17.5746220793      -14.2312612323  MEMB      186             0.0000000000
     23006       186  DOPE      C25           -35.1674209554      -15.9402107646      -13.0556793038  MEMB      186             0.0000000000
     23007       186  DOPE      H5R           -36.0268746198      -15.2486410204      -13.0019764692  MEMB      186             0.0000000000
     23008       186  DOPE      H5S           -34.2386754081      -15.3280681812      -13.0530795848  MEMB      186             0.0000000000
     23009       186  DOPE      C26           -35.1294425939      -16.8848063093      -11.8374922337  MEMB      186             0.0000000000
     23010       186  DOPE      H6R           -34.0670104008      -16.9825948726      -11.5243721531  MEMB      186             0.0000000000
     23011       186  DOPE      H6S           -35.4613330348      -17.8663159852      -12.2174270141  MEMB      186             0.0000000000
     23012       186  DOPE      C27           -36.0374903447      -16.5839968509      -10.6236474138  MEMB      186             0.0000000000
     23013       186  DOPE      H7R           -35.6002241886      -15.6959944963      -10.1179495020  MEMB      186             0.0000000000
     23014       186  DOPE      H7S           -36.0018729911      -17.4107917936       -9.8855421664  MEMB      186             0.0000000000
     23015       186  DOPE      C28           -37.5187228675      -16.3090775544      -10.9843085870  MEMB      186             0.0000000000
     23016       186  DOPE      H8R           -37.5526308360      -16.1760566279      -12.0843093751  MEMB      186             0.0000000000
     23017       186  DOPE      H8S           -37.7676628006      -15.3100445018      -10.5996770567  MEMB      186             0.0000000000
     23018       186  DOPE      C29           -38.6776891542      -17.2202490706      -10.6648781238  MEMB      186             0.0000000000
     23019       186  DOPE      H9R           -38.9753685195      -17.8310050268      -11.5328859993  MEMB      186             0.0000000000
     23020       186  DOPE      C210          -39.3349590077      -17.4917685701       -9.5193991985  MEMB      186             0.0000000000
     23021       186  DOPE      H10R          -40.2335921155      -18.1091241374       -9.6295706791  MEMB      186             0.0000000000
     23022       186  DOPE      C211          -39.2072990988      -17.0416579281       -8.0880271258  MEMB      186             0.0000000000
     23023       186  DOPE      H11R          -38.1544507453      -16.9455432427       -7.7603388221  MEMB      186             0.0000000000
     23024       186  DOPE      H11S          -39.5343452541      -17.9824520670       -7.5893824955  MEMB      186             0.0000000000
     23025       186  DOPE      C212          -40.1684122687      -16.0400954489       -7.3891311503  MEMB      186             0.0000000000
     23026       186  DOPE      H12R          -41.1402440678      -16.0792790379       -7.9308370611  MEMB      186             0.0000000000
     23027       186  DOPE      H12S          -39.8827720970      -14.9789349499       -7.3371568094  MEMB      186             0.0000000000
     23028       186  DOPE      C213          -40.4018578935      -16.4721659104       -5.9301229994  MEMB      186             0.0000000000
     23029       186  DOPE      H13R          -40.9241742072      -17.4207093741       -6.1194506235  MEMB      186             0.0000000000
     23030       186  DOPE      H13S          -41.1124514831      -15.8085450987       -5.3950032351  MEMB      186             0.0000000000
     23031       186  DOPE      C214          -39.1496239763      -16.7947416521       -5.0716929415  MEMB      186             0.0000000000
     23032       186  DOPE      H14R          -38.2595665042      -16.9976136839       -5.6965178981  MEMB      186             0.0000000000
     23033       186  DOPE      H14S          -39.3184414516      -17.7378203649       -4.5238071043  MEMB      186             0.0000000000
     23034       186  DOPE      C215          -38.7977837228      -15.7380761734       -4.0156030336  MEMB      186             0.0000000000
     23035       186  DOPE      H15R          -39.5637732631      -14.9348352090       -4.0475777683  MEMB      186             0.0000000000
     23036       186  DOPE      H15S          -37.8295820743      -15.2508932245       -4.2327794275  MEMB      186             0.0000000000
     23037       186  DOPE      C216          -38.5883972708      -16.2800541317       -2.6087476278  MEMB      186             0.0000000000
     23038       186  DOPE      H16R          -37.4958467989      -16.3407199832       -2.3997445208  MEMB      186             0.0000000000
     23039       186  DOPE      H16S          -38.9871426626      -17.3067883459       -2.4978917446  MEMB      186             0.0000000000
     23040       186  DOPE      C217          -39.2711394803      -15.3837222319       -1.5923503185  MEMB      186             0.0000000000
     23041       186  DOPE      H17R          -38.8744754019      -14.3497793450       -1.6799242577  MEMB      186             0.0000000000
     23042       186  DOPE      H17S          -38.9864912525      -15.7743813632       -0.5944204843  MEMB      186             0.0000000000
     23043       186  DOPE      C218          -40.7903752797      -15.3573889403       -1.7397908660  MEMB      186             0.0000000000
     23044       186  DOPE      H18R          -41.2648274442      -14.8255971034       -0.8940294086  MEMB      186             0.0000000000
     23045       186  DOPE      H18S          -41.1818000547      -16.3934361709       -1.7516868355  MEMB      186             0.0000000000
     23046       186  DOPE      H18T          -41.1195725971      -14.8631787079       -2.6761393716  MEMB      186             0.0000000000
     23047       186  DOPE      C33           -36.5871594493      -10.0075014376      -13.6758400728  MEMB      186             0.0000000000
     23048       186  DOPE      H3X           -36.2248114865       -9.6120706726      -12.7105288359  MEMB      186             0.0000000000
     23049       186  DOPE      H3Y           -36.1243695596      -10.9554113052      -13.7260685882  MEMB      186             0.0000000000
     23050       186  DOPE      C34           -38.0635891045      -10.5797664894      -13.5258465590  MEMB      186             0.0000000000
     23051       186  DOPE      H4X           -38.7355490303      -10.2912885304      -14.3411544078  MEMB      186             0.0000000000
     23052       186  DOPE      H4Y           -37.9911984923      -11.6904296112      -13.5548231988  MEMB      186             0.0000000000
     23053       186  DOPE      C35           -38.7142458075      -10.3212739248      -12.1608625440  MEMB      186             0.0000000000
     23054       186  DOPE      H5X           -38.9371894595       -9.2532881904      -12.1390932610  MEMB      186             0.0000000000
     23055       186  DOPE      H5Y           -37.9274216634      -10.5550138655      -11.4199534285  MEMB      186             0.0000000000
     23056       186  DOPE      C36           -40.0478365030      -10.9215813149      -11.6304165274  MEMB      186             0.0000000000
     23057       186  DOPE      H6X           -40.0174782035      -12.0235291107      -11.5505086444  MEMB      186             0.0000000000
     23058       186  DOPE      H6Y           -40.8948141008      -10.6449103325      -12.2950954796  MEMB      186             0.0000000000
     23059       186  DOPE      C37           -40.2040115395      -10.2196545266      -10.2521510558  MEMB      186             0.0000000000
     23060       186  DOPE      H7X           -39.1470266221      -10.0496009273       -9.9238130129  MEMB      186             0.0000000000
     23061       186  DOPE      H7Y           -40.6567871973       -9.2206898431      -10.4543892611  MEMB      186             0.0000000000
     23062       186  DOPE      C38           -40.8579916238      -10.8445638754       -9.0024652268  MEMB      186             0.0000000000
     23063       186  DOPE      H8X           -40.3991658690      -11.8160158118       -8.7141120885  MEMB      186             0.0000000000
     23064       186  DOPE      H8Y           -41.9396750398      -11.0230271796       -9.1928633252  MEMB      186             0.0000000000
     23065       186  DOPE      C39           -40.6009001491       -9.7501730007       -7.9695083827  MEMB      186             0.0000000000
     23066       186  DOPE      H9X           -41.4764579509       -9.1034351044       -7.7848440405  MEMB      186             0.0000000000
     23067       186  DOPE      C310          -39.4662738393       -9.5263030564       -7.2475588234  MEMB      186             0.0000000000
     23068       186  DOPE      H10X          -39.4686584283       -8.6733600468       -6.5492783485  MEMB      186             0.0000000000
     23069       186  DOPE      C311          -38.1563182088      -10.3090574239       -7.2440291489  MEMB      186             0.0000000000
     23070       186  DOPE      H11X          -38.3416179204      -10.6365497359       -6.2246129996  MEMB      186             0.0000000000
     23071       186  DOPE      H11Y          -38.2453862456      -11.1972767738       -7.8638593752  MEMB      186             0.0000000000
     23072       186  DOPE      C312          -36.6323915297       -9.8070552323       -7.1726584891  MEMB      186             0.0000000000
     23073       186  DOPE      H12X          -36.6484010999       -9.1882096611       -6.2704085750  MEMB      186             0.0000000000
     23074       186  DOPE      H12Y          -36.5535434339       -9.1241592357       -8.0446500775  MEMB      186             0.0000000000
     23075       186  DOPE      C313          -35.1633918183      -10.5199651704       -7.1201222861  MEMB      186             0.0000000000
     23076       186  DOPE      H13X          -34.8608612794      -10.5386593208       -8.1892338976  MEMB      186             0.0000000000
     23077       186  DOPE      H13Y          -34.5255202494       -9.7334041348       -6.6581977495  MEMB      186             0.0000000000
     23078       186  DOPE      C314          -34.5081953510      -11.8779598073       -6.5533133601  MEMB      186             0.0000000000
     23079       186  DOPE      H14X          -33.4904236566      -11.9446754204       -7.0008941768  MEMB      186             0.0000000000
     23080       186  DOPE      H14Y          -35.0585497515      -12.7387834525       -6.9011421767  MEMB      186             0.0000000000
     23081       186  DOPE      C315          -34.2783126453      -12.1568214697       -5.0366547928  MEMB      186             0.0000000000
     23082       186  DOPE      H15X          -35.3235590504      -12.0248085962       -4.8213429497  MEMB      186             0.0000000000
     23083       186  DOPE      H15Y          -33.6989781270      -11.3545819923       -4.5443971698  MEMB      186             0.0000000000
     23084       186  DOPE      C316          -33.9466056931      -13.5735919350       -4.4128845624  MEMB      186             0.0000000000
     23085       186  DOPE      H16X          -32.8710982117      -13.7817523460       -4.6042263764  MEMB      186             0.0000000000
     23086       186  DOPE      H16Y          -34.5138096264      -14.3656877932       -4.9382590517  MEMB      186             0.0000000000
     23087       186  DOPE      C317          -34.1782121325      -13.8164485363       -2.8580584211  MEMB      186             0.0000000000
     23088       186  DOPE      H17X          -33.7224827602      -14.8024541009       -2.5980039216  MEMB      186             0.0000000000
     23089       186  DOPE      H17Y          -33.5981920280      -13.0596587194       -2.2898397166  MEMB      186             0.0000000000
     23090       186  DOPE      C318          -35.6238448600      -13.8861141864       -2.3064900257  MEMB      186             0.0000000000
     23091       186  DOPE      H18X          -35.8070250710      -14.0764673365       -1.2534628079  MEMB      186             0.0000000000
     23092       186  DOPE      H18Y          -36.1173137777      -12.9072691094       -2.3810068129  MEMB      186             0.0000000000
     23093       186  DOPE      H18Z          -36.2110561554      -14.6528619934       -2.8460095257  MEMB      186             0.0000000000
     23094       187  DOPC      N              18.5897394703       37.2255686884      -19.1334070368  MEMB      187             0.0000000000
     23095       187  DOPC      C12            18.5501825776       36.3322722190      -17.8960534825  MEMB      187             0.0000000000
     23096       187  DOPC      H12A           17.6748999766       35.6990595738      -17.9853661513  MEMB      187             0.0000000000
     23097       187  DOPC      H12B           18.4316710327       36.9478211288      -17.0112490607  MEMB      187             0.0000000000
     23098       187  DOPC      C13            17.5102191867       38.2429887603      -19.0435508431  MEMB      187             0.0000000000
     23099       187  DOPC      H13A           16.5191623986       37.7833909410      -19.0069012482  MEMB      187             0.0000000000
     23100       187  DOPC      H13B           17.6146683963       38.8895337999      -18.1807516160  MEMB      187             0.0000000000
     23101       187  DOPC      H13C           17.4679233883       38.8608708352      -19.9361868930  MEMB      187             0.0000000000
     23102       187  DOPC      C14            18.3711255658       36.4149161161      -20.3668255118  MEMB      187             0.0000000000
     23103       187  DOPC      H14A           18.5572271228       37.0008936103      -21.2588946504  MEMB      187             0.0000000000
     23104       187  DOPC      H14B           19.0828861748       35.5948802381      -20.3595755707  MEMB      187             0.0000000000
     23105       187  DOPC      H14C           17.3699884519       36.0066978050      -20.4083919455  MEMB      187             0.0000000000
     23106       187  DOPC      C15            19.9404441991       37.8512434434      -19.2619579547  MEMB      187             0.0000000000
     23107       187  DOPC      H15A           20.2008837903       38.4500648402      -18.4028089662  MEMB      187             0.0000000000
     23108       187  DOPC      H15B           20.0211909590       38.4544873474      -20.1562467897  MEMB      187             0.0000000000
     23109       187  DOPC      H15C           20.6898471239       37.0672065480      -19.4001963469  MEMB      187             0.0000000000
     23110       187  DOPC      C11            19.7410276914       35.3864656558      -17.6100700881  MEMB      187             0.0000000000
     23111       187  DOPC      H11A           20.6566939978       35.9692457569      -17.3450125281  MEMB      187             0.0000000000
     23112       187  DOPC      H11B           19.4575354592       34.7786037313      -16.7246643691  MEMB      187             0.0000000000
     23113       187  DOPC      P              21.3287388154       34.2127017074      -19.3564018094  MEMB      187             0.0000000000
     23114       187  DOPC      O13            21.5861930840       35.3448914906      -20.2724957639  MEMB      187             0.0000000000
     23115       187  DOPC      O14            21.2010092030       32.8798643612      -19.9815161033  MEMB      187             0.0000000000
     23116       187  DOPC      O12            19.9310637548       34.4978441620      -18.6896520355  MEMB      187             0.0000000000
     23117       187  DOPC      O11            22.3677592615       34.1905971455      -18.1819028555  MEMB      187             0.0000000000
     23118       187  DOPC      C1             23.4447329156       35.1208016499      -18.0396112000  MEMB      187             0.0000000000
     23119       187  DOPC      HA             23.0932219354       36.1624839724      -18.1994208412  MEMB      187             0.0000000000
     23120       187  DOPC      HB             24.2661462303       34.8952899272      -18.7570434646  MEMB      187             0.0000000000
     23121       187  DOPC      C2             24.0148227453       35.0346635367      -16.6017180459  MEMB      187             0.0000000000
     23122       187  DOPC      HS             24.6396586648       34.1021004466      -16.5761478146  MEMB      187             0.0000000000
     23123       187  DOPC      O21            22.8936524250       35.0565312841      -15.6874158728  MEMB      187             0.0000000000
     23124       187  DOPC      C21            22.6406336936       33.8530177865      -15.2105599822  MEMB      187             0.0000000000
     23125       187  DOPC      O22            23.3954151630       32.9040053755      -15.2718518326  MEMB      187             0.0000000000
     23126       187  DOPC      C22            21.2769461028       33.8249158721      -14.5362602100  MEMB      187             0.0000000000
     23127       187  DOPC      H2R            20.5717288117       34.3391094093      -15.2016419689  MEMB      187             0.0000000000
     23128       187  DOPC      H2S            21.3843224413       34.4056141685      -13.6006752836  MEMB      187             0.0000000000
     23129       187  DOPC      C3             24.9610197469       36.1811574397      -16.1852140706  MEMB      187             0.0000000000
     23130       187  DOPC      HX             25.8631095472       36.1940244798      -16.8322225161  MEMB      187             0.0000000000
     23131       187  DOPC      HY             25.3071663623       35.9261211934      -15.1524562408  MEMB      187             0.0000000000
     23132       187  DOPC      O31            24.2644224532       37.4405106800      -16.2819147216  MEMB      187             0.0000000000
     23133       187  DOPC      C31            24.0229376849       38.0655680065      -15.1299025887  MEMB      187             0.0000000000
     23134       187  DOPC      O32            24.5213175727       37.7851232689      -14.0579380039  MEMB      187             0.0000000000
     23135       187  DOPC      C32            23.0149524874       39.1851435038      -15.3616991677  MEMB      187             0.0000000000
     23136       187  DOPC      H2X            23.1342247703       39.9232123411      -14.5405019629  MEMB      187             0.0000000000
     23137       187  DOPC      H2Y            23.2804262982       39.6789590676      -16.3205842336  MEMB      187             0.0000000000
     23138       187  DOPC      C23            20.7413468168       32.4074126837      -14.2113397564  MEMB      187             0.0000000000
     23139       187  DOPC      H3R            21.4727823146       31.8902424407      -13.5503187786  MEMB      187             0.0000000000
     23140       187  DOPC      H3S            20.6524432306       31.7908129935      -15.1369078231  MEMB      187             0.0000000000
     23141       187  DOPC      C24            19.3712253078       32.4485726499      -13.5038690183  MEMB      187             0.0000000000
     23142       187  DOPC      H4R            19.1106805101       31.4338702683      -13.1371873825  MEMB      187             0.0000000000
     23143       187  DOPC      H4S            18.6000966635       32.7307335459      -14.2511095427  MEMB      187             0.0000000000
     23144       187  DOPC      C25            19.2736171909       33.4571194587      -12.3521119781  MEMB      187             0.0000000000
     23145       187  DOPC      H5R            18.2842689890       33.3696103573      -11.8455912742  MEMB      187             0.0000000000
     23146       187  DOPC      H5S            19.3521513137       34.4869909870      -12.7623702355  MEMB      187             0.0000000000
     23147       187  DOPC      C26            20.3625670586       33.3149885312      -11.2940431360  MEMB      187             0.0000000000
     23148       187  DOPC      H6R            20.2716493449       34.2364546625      -10.6907141263  MEMB      187             0.0000000000
     23149       187  DOPC      H6S            21.3906505332       33.3801829157      -11.7077387958  MEMB      187             0.0000000000
     23150       187  DOPC      C27            20.2331818701       32.0118137125      -10.4959124351  MEMB      187             0.0000000000
     23151       187  DOPC      H7R            21.1829787310       31.4334727434      -10.5936883216  MEMB      187             0.0000000000
     23152       187  DOPC      H7S            19.4274743784       31.3634378863      -10.9013245191  MEMB      187             0.0000000000
     23153       187  DOPC      C28            19.9900493143       32.1728498113       -8.9986335428  MEMB      187             0.0000000000
     23154       187  DOPC      H8R            20.8464003505       31.6623687394       -8.5456095562  MEMB      187             0.0000000000
     23155       187  DOPC      H8S            19.0855302639       31.6102196867       -8.6678716432  MEMB      187             0.0000000000
     23156       187  DOPC      C29            20.0301143803       33.5468362007       -8.4257588018  MEMB      187             0.0000000000
     23157       187  DOPC      H9R            19.1020694192       34.0905983088       -8.6396177189  MEMB      187             0.0000000000
     23158       187  DOPC      C210           21.1136049107       34.3259865678       -8.2728592453  MEMB      187             0.0000000000
     23159       187  DOPC      H10R           20.9454600243       35.2056216649       -7.6568660682  MEMB      187             0.0000000000
     23160       187  DOPC      C211           22.5665705224       34.0745785576       -8.6257243002  MEMB      187             0.0000000000
     23161       187  DOPC      H11R           22.6306406966       33.3806355168       -9.4952413931  MEMB      187             0.0000000000
     23162       187  DOPC      H11S           23.1851967710       33.6650370556       -7.8062963082  MEMB      187             0.0000000000
     23163       187  DOPC      C212           23.2916347659       35.3972492254       -8.9412039570  MEMB      187             0.0000000000
     23164       187  DOPC      H12R           22.8027651268       35.8552633016       -9.8321467239  MEMB      187             0.0000000000
     23165       187  DOPC      H12S           24.3447432022       35.1918051171       -9.2291174803  MEMB      187             0.0000000000
     23166       187  DOPC      C213           23.2776234618       36.4039730405       -7.7668258293  MEMB      187             0.0000000000
     23167       187  DOPC      H13R           22.4391048967       36.2071625017       -7.0799424636  MEMB      187             0.0000000000
     23168       187  DOPC      H13S           23.0442799745       37.3807427840       -8.2295175031  MEMB      187             0.0000000000
     23169       187  DOPC      C214           24.5395292178       36.4430507323       -6.8763486320  MEMB      187             0.0000000000
     23170       187  DOPC      H14R           25.4077518480       36.7840486932       -7.4815958370  MEMB      187             0.0000000000
     23171       187  DOPC      H14S           24.7598318712       35.4152746837       -6.5215062549  MEMB      187             0.0000000000
     23172       187  DOPC      C215           24.4551703612       37.3706588946       -5.6356432708  MEMB      187             0.0000000000
     23173       187  DOPC      H15R           24.5457531872       38.3957163275       -6.0214471978  MEMB      187             0.0000000000
     23174       187  DOPC      H15S           25.3491478218       37.2066231342       -4.9968721722  MEMB      187             0.0000000000
     23175       187  DOPC      C216           23.1733236562       37.2806455171       -4.7772240595  MEMB      187             0.0000000000
     23176       187  DOPC      H16R           23.0873468717       36.2497436700       -4.3754785941  MEMB      187             0.0000000000
     23177       187  DOPC      H16S           22.2934720472       37.4786966180       -5.4321607908  MEMB      187             0.0000000000
     23178       187  DOPC      C217           23.0577318621       38.2845019085       -3.6070154293  MEMB      187             0.0000000000
     23179       187  DOPC      H17R           22.1003298223       38.1072252284       -3.0699851058  MEMB      187             0.0000000000
     23180       187  DOPC      H17S           22.9567085392       39.3025848347       -4.0397761904  MEMB      187             0.0000000000
     23181       187  DOPC      C218           24.1870493209       38.2624137089       -2.5670049834  MEMB      187             0.0000000000
     23182       187  DOPC      H18R           24.0899760499       39.1257887164       -1.8705177802  MEMB      187             0.0000000000
     23183       187  DOPC      H18S           25.1810182306       38.3391761687       -3.0538647846  MEMB      187             0.0000000000
     23184       187  DOPC      H18T           24.1540241324       37.3290537621       -1.9703104087  MEMB      187             0.0000000000
     23185       187  DOPC      C33            21.5594461166       38.6549953682      -15.4219909060  MEMB      187             0.0000000000
     23186       187  DOPC      H3X            21.5080306818       37.6726760085      -15.9434351955  MEMB      187             0.0000000000
     23187       187  DOPC      H3Y            20.9859043921       39.3819028845      -16.0454418525  MEMB      187             0.0000000000
     23188       187  DOPC      C34            20.8496563964       38.5817232440      -14.0536228826  MEMB      187             0.0000000000
     23189       187  DOPC      H4X            19.7542848728       38.4982651638      -14.2415012712  MEMB      187             0.0000000000
     23190       187  DOPC      H4Y            21.0211702264       39.5255577731      -13.4912229855  MEMB      187             0.0000000000
     23191       187  DOPC      C35            21.2712775342       37.3866432239      -13.1863733119  MEMB      187             0.0000000000
     23192       187  DOPC      H5X            22.3282826589       37.5130173767      -12.8611795143  MEMB      187             0.0000000000
     23193       187  DOPC      H5Y            21.2276614146       36.4760077966      -13.8184934206  MEMB      187             0.0000000000
     23194       187  DOPC      C36            20.4094426778       37.1526347654      -11.9271547183  MEMB      187             0.0000000000
     23195       187  DOPC      H6X            19.3447761249       36.9845793321      -12.1984940142  MEMB      187             0.0000000000
     23196       187  DOPC      H6Y            20.7830355304       36.2166703782      -11.4482645616  MEMB      187             0.0000000000
     23197       187  DOPC      C37            20.5178594964       38.2800806163      -10.8854272151  MEMB      187             0.0000000000
     23198       187  DOPC      H7X            21.5990647567       38.5446732777      -10.8014525825  MEMB      187             0.0000000000
     23199       187  DOPC      H7Y            19.9767721358       39.1863983719      -11.2293726215  MEMB      187             0.0000000000
     23200       187  DOPC      C38            20.0529470160       37.8773928718       -9.4676967235  MEMB      187             0.0000000000
     23201       187  DOPC      H8X            20.4992090832       38.6051883889       -8.7526214392  MEMB      187             0.0000000000
     23202       187  DOPC      H8Y            20.5197900668       36.8934882153       -9.2359953659  MEMB      187             0.0000000000
     23203       187  DOPC      C39            18.5584368757       37.8460133872       -9.2433641358  MEMB      187             0.0000000000
     23204       187  DOPC      H9X            17.9466177201       38.3081737481      -10.0370321272  MEMB      187             0.0000000000
     23205       187  DOPC      C310           17.9498973833       37.2542097066       -8.1911136501  MEMB      187             0.0000000000
     23206       187  DOPC      H10X           16.8501824028       37.2418375423       -8.1407405240  MEMB      187             0.0000000000
     23207       187  DOPC      C311           18.6571832606       36.5260929832       -7.0719553898  MEMB      187             0.0000000000
     23208       187  DOPC      H11X           19.7560680208       36.6193630095       -7.1936762265  MEMB      187             0.0000000000
     23209       187  DOPC      H11Y           18.3905431471       35.4455840094       -7.1211220541  MEMB      187             0.0000000000
     23210       187  DOPC      C312           18.4103564142       36.9184695472       -5.6066645971  MEMB      187             0.0000000000
     23211       187  DOPC      H12X           17.3305378655       36.7952947427       -5.3700035219  MEMB      187             0.0000000000
     23212       187  DOPC      H12Y           18.6986588059       37.9793903348       -5.4317899220  MEMB      187             0.0000000000
     23213       187  DOPC      C313           19.2304568946       36.0006766452       -4.6787226264  MEMB      187             0.0000000000
     23214       187  DOPC      H13X           18.7211405619       35.0166753707       -4.6173139747  MEMB      187             0.0000000000
     23215       187  DOPC      H13Y           20.2363349840       35.8105839491       -5.1187045517  MEMB      187             0.0000000000
     23216       187  DOPC      C314           19.4241876609       36.5592861583       -3.2670876653  MEMB      187             0.0000000000
     23217       187  DOPC      H14X           19.9834146431       35.8125900484       -2.6585267159  MEMB      187             0.0000000000
     23218       187  DOPC      H14Y           20.0473393585       37.4773028496       -3.3362175399  MEMB      187             0.0000000000
     23219       187  DOPC      C315           18.0989266607       36.9064147049       -2.5801883053  MEMB      187             0.0000000000
     23220       187  DOPC      H15X           17.4785624288       35.9847875319       -2.5082244106  MEMB      187             0.0000000000
     23221       187  DOPC      H15Y           17.5413272828       37.6370834884       -3.2067439990  MEMB      187             0.0000000000
     23222       187  DOPC      C316           18.2768879263       37.5093732248       -1.1801736033  MEMB      187             0.0000000000
     23223       187  DOPC      H16X           18.8762601873       38.4449485822       -1.2437925251  MEMB      187             0.0000000000
     23224       187  DOPC      H16Y           17.2661957620       37.7775975252       -0.7960884123  MEMB      187             0.0000000000
     23225       187  DOPC      C317           18.9395392250       36.5394015849       -0.1953728095  MEMB      187             0.0000000000
     23226       187  DOPC      H17X           18.5064271463       35.5304015230       -0.3692324958  MEMB      187             0.0000000000
     23227       187  DOPC      H17Y           20.0280655404       36.4739764976       -0.4202662862  MEMB      187             0.0000000000
     23228       187  DOPC      C318           18.7366517504       36.9223220703        1.2720768614  MEMB      187             0.0000000000
     23229       187  DOPC      H18X           19.1643581496       36.1459243500        1.9420303370  MEMB      187             0.0000000000
     23230       187  DOPC      H18Y           19.2295134226       37.8932641771        1.4921236226  MEMB      187             0.0000000000
     23231       187  DOPC      H18Z           17.6533275696       37.0212870708        1.5015072497  MEMB      187             0.0000000000
     23232       188  DOPE      N              36.5525642744       20.4374311960      -21.9802454698  MEMB      188             0.0000000000
     23233       188  DOPE      HN1            35.7652047464       19.8820406706      -21.5710832751  MEMB      188             0.0000000000
     23234       188  DOPE      HN2            36.4279952663       20.3975225570      -23.0167232647  MEMB      188             0.0000000000
     23235       188  DOPE      HN3            37.4649546890       19.9995966498      -21.7880632876  MEMB      188             0.0000000000
     23236       188  DOPE      C12            36.5575478744       21.8134407481      -21.3577239686  MEMB      188             0.0000000000
     23237       188  DOPE      H12A           35.7773540745       22.4038862220      -21.8680582657  MEMB      188             0.0000000000
     23238       188  DOPE      H12B           37.5475447069       22.2739593854      -21.5418677806  MEMB      188             0.0000000000
     23239       188  DOPE      C11            36.2769571992       21.7831212088      -19.8423028896  MEMB      188             0.0000000000
     23240       188  DOPE      H11A           36.1229915196       22.8161079590      -19.4487281523  MEMB      188             0.0000000000
     23241       188  DOPE      H11B           37.1998963158       21.4268639625      -19.3264571101  MEMB      188             0.0000000000
     23242       188  DOPE      P              34.5084030875       20.8700696288      -18.1302512973  MEMB      188             0.0000000000
     23243       188  DOPE      O13            33.1724061187       20.2568803100      -18.2077185577  MEMB      188             0.0000000000
     23244       188  DOPE      O14            34.7049129717       22.1620699345      -17.4447379129  MEMB      188             0.0000000000
     23245       188  DOPE      O11            35.4802710033       19.8050719800      -17.4835585804  MEMB      188             0.0000000000
     23246       188  DOPE      O12            35.1267116065       20.9617967760      -19.5977329081  MEMB      188             0.0000000000
     23247       188  DOPE      C1             36.3988994204       18.9856307442      -18.2124325635  MEMB      188             0.0000000000
     23248       188  DOPE      HA             37.1092711958       19.5766670119      -18.8188454132  MEMB      188             0.0000000000
     23249       188  DOPE      HB             35.8580197266       18.3428733128      -18.9346812053  MEMB      188             0.0000000000
     23250       188  DOPE      C2             37.3430841137       18.1500378074      -17.2920890557  MEMB      188             0.0000000000
     23251       188  DOPE      HS             37.5287000844       17.1595434751      -17.7798860556  MEMB      188             0.0000000000
     23252       188  DOPE      O21            36.8646956944       18.0749510688      -15.9179283048  MEMB      188             0.0000000000
     23253       188  DOPE      C21            36.3582095761       16.8891016807      -15.6616041772  MEMB      188             0.0000000000
     23254       188  DOPE      O22            36.2159167181       16.0032237991      -16.4789852959  MEMB      188             0.0000000000
     23255       188  DOPE      C22            36.1844305494       16.6086442124      -14.1430238496  MEMB      188             0.0000000000
     23256       188  DOPE      H2R            37.1373504630       16.8452856819      -13.6380155442  MEMB      188             0.0000000000
     23257       188  DOPE      H2S            36.0123354298       15.5082713137      -14.0853346469  MEMB      188             0.0000000000
     23258       188  DOPE      C3             38.7434870298       18.8096183500      -17.2762195398  MEMB      188             0.0000000000
     23259       188  DOPE      HX             39.2147014287       18.6665229853      -18.2725042935  MEMB      188             0.0000000000
     23260       188  DOPE      HY             39.3430770946       18.2520228283      -16.5138680004  MEMB      188             0.0000000000
     23261       188  DOPE      O31            38.6107575895       20.2188824470      -17.0081587693  MEMB      188             0.0000000000
     23262       188  DOPE      C31            39.4780052483       20.7001370496      -16.1585004515  MEMB      188             0.0000000000
     23263       188  DOPE      O32            40.5780805523       20.1919692612      -15.9467872506  MEMB      188             0.0000000000
     23264       188  DOPE      C32            38.8950467742       21.9832015890      -15.5447464024  MEMB      188             0.0000000000
     23265       188  DOPE      H2X            39.6927744412       22.7347036228      -15.4035933938  MEMB      188             0.0000000000
     23266       188  DOPE      H2Y            38.1397398610       22.4121620114      -16.2417121301  MEMB      188             0.0000000000
     23267       188  DOPE      C23            34.9942126666       17.2306278335      -13.3941248213  MEMB      188             0.0000000000
     23268       188  DOPE      H3R            34.6665259422       16.5309232023      -12.5861844336  MEMB      188             0.0000000000
     23269       188  DOPE      H3S            34.1353325121       17.3523944852      -14.0737934718  MEMB      188             0.0000000000
     23270       188  DOPE      C24            35.3163516899       18.5623394330      -12.7314370098  MEMB      188             0.0000000000
     23271       188  DOPE      H4R            35.8909052757       19.2170948309      -13.4257249684  MEMB      188             0.0000000000
     23272       188  DOPE      H4S            35.9415226159       18.4054566454      -11.8254851216  MEMB      188             0.0000000000
     23273       188  DOPE      C25            34.0250811454       19.2785278790      -12.3492418965  MEMB      188             0.0000000000
     23274       188  DOPE      H5R            33.3760849435       18.6222382732      -11.7328276700  MEMB      188             0.0000000000
     23275       188  DOPE      H5S            33.4779901971       19.5370818338      -13.2848068714  MEMB      188             0.0000000000
     23276       188  DOPE      C26            34.3135631520       20.5431187539      -11.5652054391  MEMB      188             0.0000000000
     23277       188  DOPE      H6R            35.0750814112       21.1395659981      -12.1159805378  MEMB      188             0.0000000000
     23278       188  DOPE      H6S            34.7460445581       20.2459751855      -10.5815775383  MEMB      188             0.0000000000
     23279       188  DOPE      C27            33.0682480093       21.4018009299      -11.3294117393  MEMB      188             0.0000000000
     23280       188  DOPE      H7R            32.1861601337       20.7304392283      -11.2258258399  MEMB      188             0.0000000000
     23281       188  DOPE      H7S            32.8936034303       22.0474036650      -12.2205127925  MEMB      188             0.0000000000
     23282       188  DOPE      C28            33.2077586476       22.2415226473      -10.0490545080  MEMB      188             0.0000000000
     23283       188  DOPE      H8R            33.3482309180       21.5352592465       -9.1977423578  MEMB      188             0.0000000000
     23284       188  DOPE      H8S            32.2573407204       22.7939712264       -9.8762532507  MEMB      188             0.0000000000
     23285       188  DOPE      C29            34.3960974759       23.1658281830      -10.1551649026  MEMB      188             0.0000000000
     23286       188  DOPE      H9R            35.2120109532       22.8170848436      -10.8035710934  MEMB      188             0.0000000000
     23287       188  DOPE      C210           34.5792871593       24.3249016494       -9.5123670236  MEMB      188             0.0000000000
     23288       188  DOPE      H10R           35.5055006721       24.8892878724       -9.6859165179  MEMB      188             0.0000000000
     23289       188  DOPE      C211           33.6480879062       24.9713761565       -8.5339103950  MEMB      188             0.0000000000
     23290       188  DOPE      H11R           32.7691494334       24.3376133523       -8.2851192970  MEMB      188             0.0000000000
     23291       188  DOPE      H11S           33.2552928641       25.8812627353       -9.0081450088  MEMB      188             0.0000000000
     23292       188  DOPE      C212           34.4037406577       25.3959463783       -7.2581967038  MEMB      188             0.0000000000
     23293       188  DOPE      H12R           33.6696921833       25.8403516180       -6.5504073911  MEMB      188             0.0000000000
     23294       188  DOPE      H12S           35.1393790343       26.1872681063       -7.5161911790  MEMB      188             0.0000000000
     23295       188  DOPE      C213           35.0873787806       24.2419095482       -6.5104411637  MEMB      188             0.0000000000
     23296       188  DOPE      H13R           35.7416720573       24.6515318145       -5.7089125378  MEMB      188             0.0000000000
     23297       188  DOPE      H13S           35.7264670680       23.6557973983       -7.2048957813  MEMB      188             0.0000000000
     23298       188  DOPE      C214           34.0011432757       23.3620258766       -5.9001491260  MEMB      188             0.0000000000
     23299       188  DOPE      H14R           33.2279941643       23.1897599092       -6.6806208387  MEMB      188             0.0000000000
     23300       188  DOPE      H14S           33.5097431718       23.9250181619       -5.0765483424  MEMB      188             0.0000000000
     23301       188  DOPE      C215           34.4050934414       21.9659433691       -5.4407206699  MEMB      188             0.0000000000
     23302       188  DOPE      H15R           34.9973075148       22.0198341929       -4.5026253848  MEMB      188             0.0000000000
     23303       188  DOPE      H15S           35.0346400351       21.4612898776       -6.2052909147  MEMB      188             0.0000000000
     23304       188  DOPE      C216           33.1212405068       21.1565261147       -5.2543030034  MEMB      188             0.0000000000
     23305       188  DOPE      H16R           33.3135198808       20.0835767193       -5.1583463275  MEMB      188             0.0000000000
     23306       188  DOPE      H16S           32.4511045079       21.2863951486       -6.1359772448  MEMB      188             0.0000000000
     23307       188  DOPE      C217           32.3832223891       21.5551506433       -4.0007337394  MEMB      188             0.0000000000
     23308       188  DOPE      H17R           31.4418330553       20.9758615263       -3.9975956850  MEMB      188             0.0000000000
     23309       188  DOPE      H17S           32.1721425046       22.6471165982       -4.0270719833  MEMB      188             0.0000000000
     23310       188  DOPE      C218           33.0611196491       21.2257471855       -2.7000765906  MEMB      188             0.0000000000
     23311       188  DOPE      H18R           32.8061647112       20.1845690332       -2.3904708835  MEMB      188             0.0000000000
     23312       188  DOPE      H18S           32.7204729537       21.9384657009       -1.9217665918  MEMB      188             0.0000000000
     23313       188  DOPE      H18T           34.1592061316       21.3275366577       -2.7738423409  MEMB      188             0.0000000000
     23314       188  DOPE      C33            38.1722106055       21.7205817260      -14.2082693889  MEMB      188             0.0000000000
     23315       188  DOPE      H3X            37.2118915967       21.1778570496      -14.3803208946  MEMB      188             0.0000000000
     23316       188  DOPE      H3Y            37.9018905880       22.7002517808      -13.7450883948  MEMB      188             0.0000000000
     23317       188  DOPE      C34            39.0182443800       20.9314805504      -13.2101807941  MEMB      188             0.0000000000
     23318       188  DOPE      H4X            38.9589620237       19.8430962234      -13.4519856132  MEMB      188             0.0000000000
     23319       188  DOPE      H4Y            40.0860819806       21.2377984055      -13.2706887286  MEMB      188             0.0000000000
     23320       188  DOPE      C35            38.5115186650       21.1789777688      -11.7933380487  MEMB      188             0.0000000000
     23321       188  DOPE      H5X            37.4551252399       20.8289079082      -11.7457079438  MEMB      188             0.0000000000
     23322       188  DOPE      H5Y            38.5230554997       22.2717152965      -11.5832680113  MEMB      188             0.0000000000
     23323       188  DOPE      C36            39.3514369841       20.4645972470      -10.7395502097  MEMB      188             0.0000000000
     23324       188  DOPE      H6X            40.4165358424       20.7718542816      -10.8430451496  MEMB      188             0.0000000000
     23325       188  DOPE      H6Y            39.3096664100       19.3682357184      -10.9300950737  MEMB      188             0.0000000000
     23326       188  DOPE      C37            38.8761417524       20.7815771191       -9.3149592313  MEMB      188             0.0000000000
     23327       188  DOPE      H7X            39.5394564795       20.2345366758       -8.6052426692  MEMB      188             0.0000000000
     23328       188  DOPE      H7Y            39.0081207047       21.8684393982       -9.1227771386  MEMB      188             0.0000000000
     23329       188  DOPE      C38            37.4040470591       20.4142593382       -9.0518118808  MEMB      188             0.0000000000
     23330       188  DOPE      H8X            36.7205429997       20.9468435935       -9.7440506232  MEMB      188             0.0000000000
     23331       188  DOPE      H8Y            37.1229201859       20.7521831914       -8.0294112972  MEMB      188             0.0000000000
     23332       188  DOPE      C39            37.2866756592       18.9255635868       -9.2155556225  MEMB      188             0.0000000000
     23333       188  DOPE      H9X            37.3339692186       18.5526123721      -10.2471330087  MEMB      188             0.0000000000
     23334       188  DOPE      C310           37.2092016150       18.0495371221       -8.2138803388  MEMB      188             0.0000000000
     23335       188  DOPE      H10X           37.2554325341       16.9765735849       -8.4450876639  MEMB      188             0.0000000000
     23336       188  DOPE      C311           37.2223681991       18.4085449655       -6.7568660751  MEMB      188             0.0000000000
     23337       188  DOPE      H11X           36.4358056007       19.1634056424       -6.5302319551  MEMB      188             0.0000000000
     23338       188  DOPE      H11Y           36.9646075131       17.4951617041       -6.1901691128  MEMB      188             0.0000000000
     23339       188  DOPE      C312           38.5741237706       18.9143597631       -6.2233115214  MEMB      188             0.0000000000
     23340       188  DOPE      H12X           38.7572166611       19.9405367018       -6.6060140792  MEMB      188             0.0000000000
     23341       188  DOPE      H12Y           39.3876573779       18.2659372058       -6.6176080896  MEMB      188             0.0000000000
     23342       188  DOPE      C313           38.6161993651       18.9517300238       -4.6837572053  MEMB      188             0.0000000000
     23343       188  DOPE      H13X           37.8245782444       18.2738806684       -4.3059160109  MEMB      188             0.0000000000
     23344       188  DOPE      H13Y           39.5879104537       18.5462628945       -4.3298380610  MEMB      188             0.0000000000
     23345       188  DOPE      C314           38.4269081527       20.3853294311       -4.1469735965  MEMB      188             0.0000000000
     23346       188  DOPE      H14X           37.4025965930       20.7353908355       -4.4117493324  MEMB      188             0.0000000000
     23347       188  DOPE      H14Y           39.1490063001       21.0364015006       -4.6903793852  MEMB      188             0.0000000000
     23348       188  DOPE      C315           38.6634156653       20.6223730520       -2.6400395629  MEMB      188             0.0000000000
     23349       188  DOPE      H15X           39.6082817046       20.1402704375       -2.3098387030  MEMB      188             0.0000000000
     23350       188  DOPE      H15Y           37.8585473883       20.1827719340       -2.0245184072  MEMB      188             0.0000000000
     23351       188  DOPE      C316           38.6846949105       22.1291485453       -2.3181723902  MEMB      188             0.0000000000
     23352       188  DOPE      H16X           38.1280304423       22.6585531656       -3.1255284509  MEMB      188             0.0000000000
     23353       188  DOPE      H16Y           39.7343479133       22.4884802599       -2.3387781126  MEMB      188             0.0000000000
     23354       188  DOPE      C317           38.0160221331       22.5268245339       -0.9907119971  MEMB      188             0.0000000000
     23355       188  DOPE      H17X           38.0407607540       23.6373094789       -0.9039317252  MEMB      188             0.0000000000
     23356       188  DOPE      H17Y           36.9425536254       22.2300406455       -1.0352028777  MEMB      188             0.0000000000
     23357       188  DOPE      C318           38.6649564878       21.9285038188        0.2570327616  MEMB      188             0.0000000000
     23358       188  DOPE      H18X           38.1216638542       22.2397140907        1.1763573313  MEMB      188             0.0000000000
     23359       188  DOPE      H18Y           38.6452724838       20.8186085358        0.2029993320  MEMB      188             0.0000000000
     23360       188  DOPE      H18Z           39.7214043181       22.2512687036        0.3441623763  MEMB      188             0.0000000000
     23361       189  DOPC      N             -30.5543644103      -26.9320270378      -20.6035675204  MEMB      189             0.0000000000
     23362       189  DOPC      C12           -29.1921013398      -27.5247267699      -20.2623359795  MEMB      189             0.0000000000
     23363       189  DOPC      H12A          -28.5935392834      -26.7186304879      -19.8593292497  MEMB      189             0.0000000000
     23364       189  DOPC      H12B          -28.6883955143      -27.8757641318      -21.1520878912  MEMB      189             0.0000000000
     23365       189  DOPC      C13           -31.5493760968      -28.0496453915      -20.6787221465  MEMB      189             0.0000000000
     23366       189  DOPC      H13A          -31.1591926830      -28.8666804680      -21.2700148451  MEMB      189             0.0000000000
     23367       189  DOPC      H13B          -31.7039269387      -28.4870222618      -19.6856545149  MEMB      189             0.0000000000
     23368       189  DOPC      H13C          -32.4916131480      -27.7314636128      -21.0914192668  MEMB      189             0.0000000000
     23369       189  DOPC      C14           -30.4806333709      -26.1869356625      -21.8943317686  MEMB      189             0.0000000000
     23370       189  DOPC      H14A          -30.2261384729      -26.8883913204      -22.6909578941  MEMB      189             0.0000000000
     23371       189  DOPC      H14B          -31.4283625509      -25.7553363616      -22.1965609142  MEMB      189             0.0000000000
     23372       189  DOPC      H14C          -29.7321603705      -25.4027567667      -21.9028024077  MEMB      189             0.0000000000
     23373       189  DOPC      C15           -31.0247941191      -26.0911753233      -19.4492817695  MEMB      189             0.0000000000
     23374       189  DOPC      H15A          -32.0383982616      -25.7478200121      -19.5465646574  MEMB      189             0.0000000000
     23375       189  DOPC      H15B          -30.3634385555      -25.2717086901      -19.2364552878  MEMB      189             0.0000000000
     23376       189  DOPC      H15C          -31.0178678962      -26.7473373751      -18.5644557834  MEMB      189             0.0000000000
     23377       189  DOPC      C11           -29.1932100595      -28.6784679296      -19.2358873445  MEMB      189             0.0000000000
     23378       189  DOPC      H11A          -29.5802915648      -29.6173740230      -19.6983745927  MEMB      189             0.0000000000
     23379       189  DOPC      H11B          -28.1543065464      -28.8856107567      -18.8874307896  MEMB      189             0.0000000000
     23380       189  DOPC      P             -30.7034605253      -29.2592936786      -17.1583150938  MEMB      189             0.0000000000
     23381       189  DOPC      O13           -31.3408254373      -28.3868020521      -16.1523151086  MEMB      189             0.0000000000
     23382       189  DOPC      O14           -29.7120502318      -30.2570087962      -16.7178799563  MEMB      189             0.0000000000
     23383       189  DOPC      O12           -29.9800572159      -28.2793930401      -18.1368075359  MEMB      189             0.0000000000
     23384       189  DOPC      O11           -31.8043954020      -29.9315121377      -18.1001656272  MEMB      189             0.0000000000
     23385       189  DOPC      C1            -32.1184926374      -31.3348159734      -17.9886950518  MEMB      189             0.0000000000
     23386       189  DOPC      HA            -31.3887328900      -31.9053977059      -17.3611921918  MEMB      189             0.0000000000
     23387       189  DOPC      HB            -32.0622727266      -31.7862567377      -19.0004501046  MEMB      189             0.0000000000
     23388       189  DOPC      C2            -33.5531650576      -31.5671857993      -17.4220844641  MEMB      189             0.0000000000
     23389       189  DOPC      HS            -34.2765041366      -31.1687476810      -18.1703711213  MEMB      189             0.0000000000
     23390       189  DOPC      O21           -33.6316924791      -30.9303419259      -16.1497699764  MEMB      189             0.0000000000
     23391       189  DOPC      C21           -34.2431112435      -29.7998461906      -16.1560146015  MEMB      189             0.0000000000
     23392       189  DOPC      O22           -34.7379030665      -29.2357350590      -17.1248545282  MEMB      189             0.0000000000
     23393       189  DOPC      C22           -34.4125067617      -29.3541612178      -14.7209510538  MEMB      189             0.0000000000
     23394       189  DOPC      H2R           -35.3746094094      -29.7657499739      -14.3722739588  MEMB      189             0.0000000000
     23395       189  DOPC      H2S           -34.4867811439      -28.2524886785      -14.7931032964  MEMB      189             0.0000000000
     23396       189  DOPC      C3            -33.9792769788      -33.0286159698      -17.1593397268  MEMB      189             0.0000000000
     23397       189  DOPC      HX            -34.0926785163      -33.5565682552      -18.1274535896  MEMB      189             0.0000000000
     23398       189  DOPC      HY            -34.9863052639      -33.0252322302      -16.6699956644  MEMB      189             0.0000000000
     23399       189  DOPC      O31           -32.9859051348      -33.6815611921      -16.3590942631  MEMB      189             0.0000000000
     23400       189  DOPC      C31           -33.0336332768      -33.4325510195      -15.0700327944  MEMB      189             0.0000000000
     23401       189  DOPC      O32           -34.0069040017      -33.0657988328      -14.4342095520  MEMB      189             0.0000000000
     23402       189  DOPC      C32           -31.6611663443      -33.6705258455      -14.4704387961  MEMB      189             0.0000000000
     23403       189  DOPC      H2X           -31.8746759618      -33.8476646331      -13.4059763333  MEMB      189             0.0000000000
     23404       189  DOPC      H2Y           -31.2453707469      -34.5964455205      -14.9057305130  MEMB      189             0.0000000000
     23405       189  DOPC      C23           -33.2761723168      -29.7410343141      -13.7527911451  MEMB      189             0.0000000000
     23406       189  DOPC      H3R           -32.3493092332      -30.0416291801      -14.2827330772  MEMB      189             0.0000000000
     23407       189  DOPC      H3S           -33.5863504642      -30.5738592436      -13.0812535180  MEMB      189             0.0000000000
     23408       189  DOPC      C24           -32.9305026767      -28.5070944355      -12.9513858328  MEMB      189             0.0000000000
     23409       189  DOPC      H4R           -33.7904602611      -28.3468024436      -12.2701179074  MEMB      189             0.0000000000
     23410       189  DOPC      H4S           -32.8136101344      -27.6380872393      -13.6445521043  MEMB      189             0.0000000000
     23411       189  DOPC      C25           -31.6629046153      -28.5821708501      -12.1279278308  MEMB      189             0.0000000000
     23412       189  DOPC      H5R           -30.7703474222      -28.7132058002      -12.7812893021  MEMB      189             0.0000000000
     23413       189  DOPC      H5S           -31.7474916516      -29.4363963920      -11.4248910486  MEMB      189             0.0000000000
     23414       189  DOPC      C26           -31.5673239628      -27.3129647285      -11.3018601181  MEMB      189             0.0000000000
     23415       189  DOPC      H6R           -32.4472572946      -27.3488784365      -10.6226985052  MEMB      189             0.0000000000
     23416       189  DOPC      H6S           -31.6461504886      -26.4223099556      -11.9602189359  MEMB      189             0.0000000000
     23417       189  DOPC      C27           -30.3128217891      -27.2224555334      -10.4712241366  MEMB      189             0.0000000000
     23418       189  DOPC      H7R           -30.2324793062      -26.2074091663      -10.0213789951  MEMB      189             0.0000000000
     23419       189  DOPC      H7S           -29.4257465794      -27.3811040001      -11.1266383271  MEMB      189             0.0000000000
     23420       189  DOPC      C28           -30.3176582116      -28.2650578303       -9.3631020168  MEMB      189             0.0000000000
     23421       189  DOPC      H8R           -29.3225369030      -28.1124786360       -8.9310113947  MEMB      189             0.0000000000
     23422       189  DOPC      H8S           -30.4064880655      -29.3000470303       -9.7426199171  MEMB      189             0.0000000000
     23423       189  DOPC      C29           -31.3197930491      -28.0144849213       -8.2922064818  MEMB      189             0.0000000000
     23424       189  DOPC      H9R           -30.9879112210      -27.2465176394       -7.5781597756  MEMB      189             0.0000000000
     23425       189  DOPC      C210          -32.4465734260      -28.6811821471       -8.0107503395  MEMB      189             0.0000000000
     23426       189  DOPC      H10R          -32.9805773856      -28.3816807969       -7.1084235242  MEMB      189             0.0000000000
     23427       189  DOPC      C211          -33.0876555900      -29.8802995840       -8.6407586986  MEMB      189             0.0000000000
     23428       189  DOPC      H11R          -32.8008010157      -30.0261497079       -9.7004588923  MEMB      189             0.0000000000
     23429       189  DOPC      H11S          -34.1966949197      -29.7792935706       -8.5934543170  MEMB      189             0.0000000000
     23430       189  DOPC      C212          -32.6625118267      -31.0870598211       -7.7950221779  MEMB      189             0.0000000000
     23431       189  DOPC      H12R          -31.6095794014      -31.3577507364       -8.0366272988  MEMB      189             0.0000000000
     23432       189  DOPC      H12S          -33.3015941365      -31.9628314711       -8.0524860905  MEMB      189             0.0000000000
     23433       189  DOPC      C213          -32.7823562756      -30.8422009113       -6.2846271094  MEMB      189             0.0000000000
     23434       189  DOPC      H13R          -33.8507427827      -30.6381203559       -6.0490602457  MEMB      189             0.0000000000
     23435       189  DOPC      H13S          -32.1742341732      -29.9898242211       -5.9072713990  MEMB      189             0.0000000000
     23436       189  DOPC      C214          -32.3109209729      -32.0362914055       -5.4956883887  MEMB      189             0.0000000000
     23437       189  DOPC      H14R          -31.2116255831      -31.9946516889       -5.3692614971  MEMB      189             0.0000000000
     23438       189  DOPC      H14S          -32.5080528417      -32.9475802931       -6.0908400811  MEMB      189             0.0000000000
     23439       189  DOPC      C215          -32.9833925226      -32.0651979422       -4.1319623036  MEMB      189             0.0000000000
     23440       189  DOPC      H15R          -33.4812438837      -33.0295363138       -3.9664338205  MEMB      189             0.0000000000
     23441       189  DOPC      H15S          -33.7371874979      -31.2530577024       -4.0375437685  MEMB      189             0.0000000000
     23442       189  DOPC      C216          -31.9497141215      -31.9802821187       -3.0360501419  MEMB      189             0.0000000000
     23443       189  DOPC      H16R          -31.4440313315      -31.0059775649       -3.1335740297  MEMB      189             0.0000000000
     23444       189  DOPC      H16S          -31.2085927824      -32.7711321155       -3.2732126090  MEMB      189             0.0000000000
     23445       189  DOPC      C217          -32.5133244980      -32.1883931503       -1.6313004955  MEMB      189             0.0000000000
     23446       189  DOPC      H17R          -31.8760718324      -31.6257117119       -0.9109780645  MEMB      189             0.0000000000
     23447       189  DOPC      H17S          -32.4615482670      -33.2617153047       -1.3649924028  MEMB      189             0.0000000000
     23448       189  DOPC      C218          -33.9619432840      -31.7616609025       -1.4731846223  MEMB      189             0.0000000000
     23449       189  DOPC      H18R          -34.2327677076      -31.7203977373       -0.3965688260  MEMB      189             0.0000000000
     23450       189  DOPC      H18S          -34.6711148496      -32.4245522024       -1.9899179909  MEMB      189             0.0000000000
     23451       189  DOPC      H18T          -34.0964762585      -30.7555471147       -1.9223884858  MEMB      189             0.0000000000
     23452       189  DOPC      C33           -30.6870409207      -32.4860943195      -14.7039690391  MEMB      189             0.0000000000
     23453       189  DOPC      H3X           -31.2440730875      -31.5543409388      -14.9368490594  MEMB      189             0.0000000000
     23454       189  DOPC      H3Y           -30.0725916306      -32.6876198905      -15.6139973587  MEMB      189             0.0000000000
     23455       189  DOPC      C34           -29.7327270693      -32.1827401514      -13.5432993403  MEMB      189             0.0000000000
     23456       189  DOPC      H4X           -29.1319649400      -31.2750966489      -13.7956259084  MEMB      189             0.0000000000
     23457       189  DOPC      H4Y           -29.0235343648      -33.0278204340      -13.4489589218  MEMB      189             0.0000000000
     23458       189  DOPC      C35           -30.4226383904      -31.9341002504      -12.2046234316  MEMB      189             0.0000000000
     23459       189  DOPC      H5X           -31.3075913355      -32.5804463083      -12.0484500836  MEMB      189             0.0000000000
     23460       189  DOPC      H5Y           -30.8166527159      -30.9129931411      -12.2006159011  MEMB      189             0.0000000000
     23461       189  DOPC      C36           -29.5163913647      -32.1483452059      -11.0061783923  MEMB      189             0.0000000000
     23462       189  DOPC      H6X           -30.1885309083      -32.3064613294      -10.1275862890  MEMB      189             0.0000000000
     23463       189  DOPC      H6Y           -28.8716881141      -33.0423726001      -11.0922030394  MEMB      189             0.0000000000
     23464       189  DOPC      C37           -28.5647806832      -31.0143581444      -10.6975011622  MEMB      189             0.0000000000
     23465       189  DOPC      H7X           -27.6216953587      -31.1301266934      -11.2743718647  MEMB      189             0.0000000000
     23466       189  DOPC      H7Y           -28.9912777373      -30.0277562477      -10.9799305991  MEMB      189             0.0000000000
     23467       189  DOPC      C38           -28.2770676615      -31.1608097271       -9.2088880965  MEMB      189             0.0000000000
     23468       189  DOPC      H8X           -27.6512359764      -32.0722709251       -9.0972843802  MEMB      189             0.0000000000
     23469       189  DOPC      H8Y           -29.2161557007      -31.3087114647       -8.6399432345  MEMB      189             0.0000000000
     23470       189  DOPC      C39           -27.5339035999      -29.9838210109       -8.7280096118  MEMB      189             0.0000000000
     23471       189  DOPC      H9X           -26.8212122705      -29.6689761841       -9.4935618390  MEMB      189             0.0000000000
     23472       189  DOPC      C310          -27.7262867279      -29.2669212437       -7.6084009629  MEMB      189             0.0000000000
     23473       189  DOPC      H10X          -27.1263266838      -28.3610722083       -7.4333572627  MEMB      189             0.0000000000
     23474       189  DOPC      C311          -28.7869811946      -29.5333282044       -6.5869093997  MEMB      189             0.0000000000
     23475       189  DOPC      H11X          -29.3402036325      -30.4737486217       -6.7939529728  MEMB      189             0.0000000000
     23476       189  DOPC      H11Y          -29.5265057625      -28.7090072396       -6.5651540623  MEMB      189             0.0000000000
     23477       189  DOPC      C312          -28.1622832711      -29.6210327208       -5.2149902901  MEMB      189             0.0000000000
     23478       189  DOPC      H12X          -27.7933342228      -28.6306250450       -4.8674090996  MEMB      189             0.0000000000
     23479       189  DOPC      H12Y          -27.3014171194      -30.3168968690       -5.2571881182  MEMB      189             0.0000000000
     23480       189  DOPC      C313          -29.1188668435      -30.2096486717       -4.1960190908  MEMB      189             0.0000000000
     23481       189  DOPC      H13X          -29.8423776056      -29.4372837185       -3.8678044587  MEMB      189             0.0000000000
     23482       189  DOPC      H13Y          -29.6675320260      -31.0640730669       -4.6363758378  MEMB      189             0.0000000000
     23483       189  DOPC      C314          -28.2832554672      -30.7381633974       -3.0559485915  MEMB      189             0.0000000000
     23484       189  DOPC      H14X          -27.7508664882      -31.6532645912       -3.4102798398  MEMB      189             0.0000000000
     23485       189  DOPC      H14Y          -27.5001184614      -29.9753360685       -2.8563602475  MEMB      189             0.0000000000
     23486       189  DOPC      C315          -29.0102489394      -30.9963288525       -1.7349191436  MEMB      189             0.0000000000
     23487       189  DOPC      H15X          -30.0205293649      -30.5480558178       -1.7556160357  MEMB      189             0.0000000000
     23488       189  DOPC      H15Y          -28.4479837347      -30.4732632068       -0.9294594899  MEMB      189             0.0000000000
     23489       189  DOPC      C316          -29.0262467961      -32.4888444579       -1.3987918531  MEMB      189             0.0000000000
     23490       189  DOPC      H16X          -29.7535825432      -32.9728506446       -2.0463099757  MEMB      189             0.0000000000
     23491       189  DOPC      H16Y          -28.0746812250      -32.9328987593       -1.7184218270  MEMB      189             0.0000000000
     23492       189  DOPC      C317          -29.2743447593      -32.8183746756        0.0778610083  MEMB      189             0.0000000000
     23493       189  DOPC      H17X          -28.7943064328      -32.0067057758        0.6605339725  MEMB      189             0.0000000000
     23494       189  DOPC      H17Y          -30.3635767289      -32.7472590000        0.2726531412  MEMB      189             0.0000000000
     23495       189  DOPC      C318          -28.7503590155      -34.1754145359        0.5870520096  MEMB      189             0.0000000000
     23496       189  DOPC      H18X          -28.9475293573      -35.0145755174       -0.0703629439  MEMB      189             0.0000000000
     23497       189  DOPC      H18Y          -27.6699033891      -34.2027739342        0.7040766636  MEMB      189             0.0000000000
     23498       189  DOPC      H18Z          -29.1722656859      -34.4617387335        1.5644429985  MEMB      189             0.0000000000
     23499       190  DOPC      N             -25.3987544096       35.2848548337      -20.5179100842  MEMB      190             0.0000000000
     23500       190  DOPC      C12           -24.7732595339       35.8839383130      -19.2628193538  MEMB      190             0.0000000000
     23501       190  DOPC      H12A          -25.5343357869       36.3672982447      -18.6719260098  MEMB      190             0.0000000000
     23502       190  DOPC      H12B          -24.0245017909       36.6162197068      -19.5470058798  MEMB      190             0.0000000000
     23503       190  DOPC      C13           -26.4761148819       34.2906557623      -20.1920224770  MEMB      190             0.0000000000
     23504       190  DOPC      H13A          -26.8642195475       33.8134883861      -21.0886742887  MEMB      190             0.0000000000
     23505       190  DOPC      H13B          -26.0710267428       33.5002029399      -19.5603606818  MEMB      190             0.0000000000
     23506       190  DOPC      H13C          -27.3327429161       34.7072820819      -19.6783804244  MEMB      190             0.0000000000
     23507       190  DOPC      C14           -24.3170875013       34.5377469285      -21.2503951335  MEMB      190             0.0000000000
     23508       190  DOPC      H14A          -23.9881842731       33.6902176681      -20.6432663835  MEMB      190             0.0000000000
     23509       190  DOPC      H14B          -24.6410664816       34.1997977364      -22.2269347372  MEMB      190             0.0000000000
     23510       190  DOPC      H14C          -23.4299171847       35.1555389592      -21.3660977838  MEMB      190             0.0000000000
     23511       190  DOPC      C15           -25.9411546047       36.3622816533      -21.3834902844  MEMB      190             0.0000000000
     23512       190  DOPC      H15A          -26.8725045759       36.7559856955      -20.9841909138  MEMB      190             0.0000000000
     23513       190  DOPC      H15B          -26.1282714815       35.9629756756      -22.3791784040  MEMB      190             0.0000000000
     23514       190  DOPC      H15C          -25.2141387531       37.1539830113      -21.5151711225  MEMB      190             0.0000000000
     23515       190  DOPC      C11           -24.0116825381       34.9176783622      -18.3462697470  MEMB      190             0.0000000000
     23516       190  DOPC      H11A          -24.0300527784       35.3226348158      -17.3037146649  MEMB      190             0.0000000000
     23517       190  DOPC      H11B          -24.5700379488       33.9551737116      -18.3590276411  MEMB      190             0.0000000000
     23518       190  DOPC      P             -21.9050339900       33.6003833514      -17.9506483185  MEMB      190             0.0000000000
     23519       190  DOPC      O13           -22.1166940129       33.8680719002      -16.5153822416  MEMB      190             0.0000000000
     23520       190  DOPC      O14           -20.5089958997       33.4757719329      -18.4294377066  MEMB      190             0.0000000000
     23521       190  DOPC      O12           -22.6567348965       34.7435588242      -18.7766120627  MEMB      190             0.0000000000
     23522       190  DOPC      O11           -22.7503455751       32.3560539793      -18.4543172421  MEMB      190             0.0000000000
     23523       190  DOPC      C1            -23.0270616488       31.1803118144      -17.6962908171  MEMB      190             0.0000000000
     23524       190  DOPC      HA            -22.4029465846       31.1177761948      -16.7777597794  MEMB      190             0.0000000000
     23525       190  DOPC      HB            -22.7776938439       30.2936873133      -18.3220839840  MEMB      190             0.0000000000
     23526       190  DOPC      C2            -24.5255045952       31.0443692594      -17.2832385593  MEMB      190             0.0000000000
     23527       190  DOPC      HS            -25.0870087069       30.7883907418      -18.2140943728  MEMB      190             0.0000000000
     23528       190  DOPC      O21           -24.9826685981       32.2950289315      -16.7485290918  MEMB      190             0.0000000000
     23529       190  DOPC      C21           -26.2709768440       32.5104682256      -16.8382433174  MEMB      190             0.0000000000
     23530       190  DOPC      O22           -27.0900027320       31.7563433484      -17.3176954871  MEMB      190             0.0000000000
     23531       190  DOPC      C22           -26.5402043781       33.9058981164      -16.2943254095  MEMB      190             0.0000000000
     23532       190  DOPC      H2R           -27.6160490857       34.1105854747      -16.2508970367  MEMB      190             0.0000000000
     23533       190  DOPC      H2S           -26.0963652548       34.6719631807      -16.9426750771  MEMB      190             0.0000000000
     23534       190  DOPC      C3            -24.7418717267       29.8971857739      -16.2466738784  MEMB      190             0.0000000000
     23535       190  DOPC      HX            -24.2026443726       29.0037540149      -16.6355420394  MEMB      190             0.0000000000
     23536       190  DOPC      HY            -25.8284339035       29.6367000921      -16.2373476140  MEMB      190             0.0000000000
     23537       190  DOPC      O31           -24.2010858738       30.2705506676      -14.9505365507  MEMB      190             0.0000000000
     23538       190  DOPC      C31           -25.0828167249       30.3956724227      -13.9549872775  MEMB      190             0.0000000000
     23539       190  DOPC      O32           -26.2262461069       29.9897450925      -13.9762370155  MEMB      190             0.0000000000
     23540       190  DOPC      C32           -24.5502307717       31.1695577468      -12.7274790300  MEMB      190             0.0000000000
     23541       190  DOPC      H2X           -25.3791881678       31.8454556561      -12.4406312558  MEMB      190             0.0000000000
     23542       190  DOPC      H2Y           -24.4182299034       30.4800845954      -11.8754541665  MEMB      190             0.0000000000
     23543       190  DOPC      C23           -26.0028593620       34.0278426758      -14.8821827054  MEMB      190             0.0000000000
     23544       190  DOPC      H3R           -24.8925571842       34.1073393600      -14.8692024767  MEMB      190             0.0000000000
     23545       190  DOPC      H3S           -26.2924334054       33.1142100943      -14.3120081853  MEMB      190             0.0000000000
     23546       190  DOPC      C24           -26.6274346161       35.2219134624      -14.2016461027  MEMB      190             0.0000000000
     23547       190  DOPC      H4R           -27.7088257975       35.3315495240      -14.4511955135  MEMB      190             0.0000000000
     23548       190  DOPC      H4S           -26.1027042508       36.1517908511      -14.5172269434  MEMB      190             0.0000000000
     23549       190  DOPC      C25           -26.5146916954       35.0030185172      -12.7141951397  MEMB      190             0.0000000000
     23550       190  DOPC      H5R           -26.7403887074       35.9543147781      -12.2004798399  MEMB      190             0.0000000000
     23551       190  DOPC      H5S           -25.4870805865       34.6479184242      -12.4681507773  MEMB      190             0.0000000000
     23552       190  DOPC      C26           -27.5441183873       34.0386411512      -12.1570038188  MEMB      190             0.0000000000
     23553       190  DOPC      H6R           -27.2216365660       33.0048865018      -12.3955357008  MEMB      190             0.0000000000
     23554       190  DOPC      H6S           -28.5383271015       34.2093448311      -12.6222984558  MEMB      190             0.0000000000
     23555       190  DOPC      C27           -27.6486983347       34.3170988855      -10.6621534691  MEMB      190             0.0000000000
     23556       190  DOPC      H7R           -28.2434925711       35.2444918469      -10.5039099750  MEMB      190             0.0000000000
     23557       190  DOPC      H7S           -26.6164672558       34.5217840213      -10.2995271008  MEMB      190             0.0000000000
     23558       190  DOPC      C28           -28.1983825815       33.1736925142       -9.8358276033  MEMB      190             0.0000000000
     23559       190  DOPC      H8R           -29.1906378134       32.8398490083      -10.1687473420  MEMB      190             0.0000000000
     23560       190  DOPC      H8S           -28.3679549827       33.5999365662       -8.8233878618  MEMB      190             0.0000000000
     23561       190  DOPC      C29           -27.1012822853       32.1389860461       -9.9132317199  MEMB      190             0.0000000000
     23562       190  DOPC      H9R           -26.8807776901       31.7033577695      -10.9002319230  MEMB      190             0.0000000000
     23563       190  DOPC      C210          -26.5309241998       31.6052611346       -8.8435164577  MEMB      190             0.0000000000
     23564       190  DOPC      H10R          -25.7515829772       30.8355213639       -8.9504833437  MEMB      190             0.0000000000
     23565       190  DOPC      C211          -26.9462360191       31.9552253686       -7.4576929576  MEMB      190             0.0000000000
     23566       190  DOPC      H11R          -27.0443670526       30.9801426992       -6.9771956247  MEMB      190             0.0000000000
     23567       190  DOPC      H11S          -27.9824519924       32.3261257354       -7.4258430639  MEMB      190             0.0000000000
     23568       190  DOPC      C212          -26.0799928235       32.7993511552       -6.5450136639  MEMB      190             0.0000000000
     23569       190  DOPC      H12R          -26.4730398033       32.7656826563       -5.5025996799  MEMB      190             0.0000000000
     23570       190  DOPC      H12S          -26.0903911807       33.8636225188       -6.8168187626  MEMB      190             0.0000000000
     23571       190  DOPC      C213          -24.7168712968       32.1858899957       -6.4101178662  MEMB      190             0.0000000000
     23572       190  DOPC      H13R          -24.1944179131       32.9135609291       -5.7801439756  MEMB      190             0.0000000000
     23573       190  DOPC      H13S          -24.2238800513       31.9953622312       -7.3918529359  MEMB      190             0.0000000000
     23574       190  DOPC      C214          -24.7884856514       30.9515142934       -5.5508612710  MEMB      190             0.0000000000
     23575       190  DOPC      H14R          -24.1242350592       30.1637985989       -5.9178694797  MEMB      190             0.0000000000
     23576       190  DOPC      H14S          -25.8024013158       30.5309127646       -5.6300903677  MEMB      190             0.0000000000
     23577       190  DOPC      C215          -24.6305259556       31.2057585456       -4.0640854890  MEMB      190             0.0000000000
     23578       190  DOPC      H15R          -25.2544434193       32.0780913813       -3.7557065118  MEMB      190             0.0000000000
     23579       190  DOPC      H15S          -23.5735950287       31.4199460670       -3.7983587576  MEMB      190             0.0000000000
     23580       190  DOPC      C216          -25.2033222984       29.9601462023       -3.4046596097  MEMB      190             0.0000000000
     23581       190  DOPC      H16R          -24.7034374197       29.0608396817       -3.8159156393  MEMB      190             0.0000000000
     23582       190  DOPC      H16S          -26.2831956922       29.9098213600       -3.6731547962  MEMB      190             0.0000000000
     23583       190  DOPC      C217          -25.1255139056       29.9955759057       -1.9063801649  MEMB      190             0.0000000000
     23584       190  DOPC      H17R          -25.4208501868       31.0315596288       -1.6317189731  MEMB      190             0.0000000000
     23585       190  DOPC      H17S          -24.0781481500       29.8115739980       -1.5753543122  MEMB      190             0.0000000000
     23586       190  DOPC      C218          -26.0946640351       29.0532122519       -1.2113988603  MEMB      190             0.0000000000
     23587       190  DOPC      H18R          -25.8781997297       27.9929870131       -1.4478298994  MEMB      190             0.0000000000
     23588       190  DOPC      H18S          -27.1335943833       29.2996055101       -1.5024470309  MEMB      190             0.0000000000
     23589       190  DOPC      H18T          -26.0309878363       29.1805216661       -0.1204251857  MEMB      190             0.0000000000
     23590       190  DOPC      C33           -23.3059826234       32.0288951855      -13.0339775540  MEMB      190             0.0000000000
     23591       190  DOPC      H3X           -23.6648989751       32.8610725183      -13.6751388459  MEMB      190             0.0000000000
     23592       190  DOPC      H3Y           -22.5898271052       31.4405212792      -13.6497547584  MEMB      190             0.0000000000
     23593       190  DOPC      C34           -22.5210117355       32.6146289320      -11.8383983000  MEMB      190             0.0000000000
     23594       190  DOPC      H4X           -23.1433392792       32.6637248537      -10.9199755394  MEMB      190             0.0000000000
     23595       190  DOPC      H4Y           -22.2647410198       33.6597477786      -12.1158706222  MEMB      190             0.0000000000
     23596       190  DOPC      C35           -21.1837757622       31.8705122560      -11.6344910752  MEMB      190             0.0000000000
     23597       190  DOPC      H5X           -20.7259139774       31.6866130488      -12.6291376924  MEMB      190             0.0000000000
     23598       190  DOPC      H5Y           -21.3955469977       30.9093717529      -11.1814265793  MEMB      190             0.0000000000
     23599       190  DOPC      C36           -20.1174399739       32.5012798720      -10.7326652223  MEMB      190             0.0000000000
     23600       190  DOPC      H6X           -19.7868976875       33.3967785078      -11.2998823390  MEMB      190             0.0000000000
     23601       190  DOPC      H6Y           -20.5780427936       32.7706821257       -9.7529679677  MEMB      190             0.0000000000
     23602       190  DOPC      C37           -18.8598635289       31.6348319905      -10.5047722641  MEMB      190             0.0000000000
     23603       190  DOPC      H7X           -19.2008780882       30.5769872672      -10.5944206216  MEMB      190             0.0000000000
     23604       190  DOPC      H7Y           -18.1413300118       31.8398449798      -11.3205285458  MEMB      190             0.0000000000
     23605       190  DOPC      C38           -18.1186277737       31.7276023277       -9.1366475238  MEMB      190             0.0000000000
     23606       190  DOPC      H8X           -17.6515134270       30.7290951666       -9.0010934440  MEMB      190             0.0000000000
     23607       190  DOPC      H8Y           -18.8648158413       31.7487306733       -8.3377039723  MEMB      190             0.0000000000
     23608       190  DOPC      C39           -17.0135500641       32.7278260259       -8.8604478769  MEMB      190             0.0000000000
     23609       190  DOPC      H9X           -16.0599352686       32.4892710155       -9.3387217074  MEMB      190             0.0000000000
     23610       190  DOPC      C310          -17.0569127763       33.7633632490       -7.9972385929  MEMB      190             0.0000000000
     23611       190  DOPC      H10X          -16.1679930253       34.3362704177       -7.7429613254  MEMB      190             0.0000000000
     23612       190  DOPC      C311          -18.2398229662       34.0859135849       -7.1713861345  MEMB      190             0.0000000000
     23613       190  DOPC      H11X          -18.6248900939       33.1733047811       -6.7638684953  MEMB      190             0.0000000000
     23614       190  DOPC      H11Y          -18.9581507569       34.1707125694       -7.9082021563  MEMB      190             0.0000000000
     23615       190  DOPC      C312          -18.2940592573       35.1738110326       -6.0676300341  MEMB      190             0.0000000000
     23616       190  DOPC      H12X          -19.0924516530       35.9467858010       -6.1944904990  MEMB      190             0.0000000000
     23617       190  DOPC      H12Y          -17.4063741718       35.7388560017       -6.3484837249  MEMB      190             0.0000000000
     23618       190  DOPC      C313          -18.6819256630       34.5018989194       -4.7012936763  MEMB      190             0.0000000000
     23619       190  DOPC      H13X          -19.7365820673       34.7984194194       -4.5208274884  MEMB      190             0.0000000000
     23620       190  DOPC      H13Y          -18.6321878846       33.4527704619       -4.8472104819  MEMB      190             0.0000000000
     23621       190  DOPC      C314          -18.0222544946       34.5357689652       -3.3084531706  MEMB      190             0.0000000000
     23622       190  DOPC      H14X          -16.9274094978       34.4522272111       -3.2838892759  MEMB      190             0.0000000000
     23623       190  DOPC      H14Y          -18.2236157726       35.6010922408       -3.2335999810  MEMB      190             0.0000000000
     23624       190  DOPC      C315          -18.8242373975       33.9768570257       -2.0373614038  MEMB      190             0.0000000000
     23625       190  DOPC      H15X          -19.8584347812       34.1461430870       -2.3544734605  MEMB      190             0.0000000000
     23626       190  DOPC      H15Y          -18.4364825752       34.5272110537       -1.1508888723  MEMB      190             0.0000000000
     23627       190  DOPC      C316          -19.3130035577       32.6143469643       -1.4547237911  MEMB      190             0.0000000000
     23628       190  DOPC      H16X          -19.8577446160       32.0214424329       -2.2221805716  MEMB      190             0.0000000000
     23629       190  DOPC      H16Y          -18.5272177137       31.9692082205       -1.0125381598  MEMB      190             0.0000000000
     23630       190  DOPC      C317          -20.3565192962       32.8337848932       -0.3648952751  MEMB      190             0.0000000000
     23631       190  DOPC      H17X          -19.8670983344       33.1963724311        0.5671684208  MEMB      190             0.0000000000
     23632       190  DOPC      H17Y          -21.1165301752       33.5946518618       -0.6555961911  MEMB      190             0.0000000000
     23633       190  DOPC      C318          -21.0597960531       31.5279309709       -0.1141902603  MEMB      190             0.0000000000
     23634       190  DOPC      H18X          -20.3618344125       30.6657734358       -0.1296566955  MEMB      190             0.0000000000
     23635       190  DOPC      H18Y          -21.5313430225       31.5658840501        0.8839232720  MEMB      190             0.0000000000
     23636       190  DOPC      H18Z          -21.8440300676       31.3328877372       -0.8775012389  MEMB      190             0.0000000000
     23637       191  DOPC      N              32.8588494924       28.8444209565      -20.1819103773  MEMB      191             0.0000000000
     23638       191  DOPC      C12            32.2487555087       27.7215836867      -21.0194077706  MEMB      191             0.0000000000
     23639       191  DOPC      H12A           32.7749154476       27.6646615327      -21.9623050009  MEMB      191             0.0000000000
     23640       191  DOPC      H12B           31.2083134449       27.9608936205      -21.2561592189  MEMB      191             0.0000000000
     23641       191  DOPC      C13            32.1294045442       28.9760122259      -18.8757949801  MEMB      191             0.0000000000
     23642       191  DOPC      H13A           31.0628966931       29.0832602371      -19.0132240662  MEMB      191             0.0000000000
     23643       191  DOPC      H13B           32.2326333307       28.0436539934      -18.3073572976  MEMB      191             0.0000000000
     23644       191  DOPC      H13C           32.4991937680       29.7600911453      -18.2365880409  MEMB      191             0.0000000000
     23645       191  DOPC      C14            32.7267241012       30.1000212231      -20.9753148921  MEMB      191             0.0000000000
     23646       191  DOPC      H14A           31.7283371548       30.2151254790      -21.3939319910  MEMB      191             0.0000000000
     23647       191  DOPC      H14B           32.8873310512       30.9537916794      -20.3375604806  MEMB      191             0.0000000000
     23648       191  DOPC      H14C           33.4570121974       30.1515854424      -21.7720854225  MEMB      191             0.0000000000
     23649       191  DOPC      C15            34.2776978512       28.4861590637      -19.8196585786  MEMB      191             0.0000000000
     23650       191  DOPC      H15A           34.9696452831       28.4500426352      -20.6525913297  MEMB      191             0.0000000000
     23651       191  DOPC      H15B           34.2671542391       27.5018129487      -19.3421995864  MEMB      191             0.0000000000
     23652       191  DOPC      H15C           34.6894904925       29.1642352698      -19.0717060934  MEMB      191             0.0000000000
     23653       191  DOPC      C11            32.1980609435       26.3292497262      -20.3706982765  MEMB      191             0.0000000000
     23654       191  DOPC      H11A           31.8021495569       25.5825480076      -21.1004873269  MEMB      191             0.0000000000
     23655       191  DOPC      H11B           33.2109714926       26.0108643705      -20.0446939688  MEMB      191             0.0000000000
     23656       191  DOPC      P              30.5595286390       25.3591320248      -18.5005849868  MEMB      191             0.0000000000
     23657       191  DOPC      O13            31.4787055963       24.5729352651      -17.6711887114  MEMB      191             0.0000000000
     23658       191  DOPC      O14            29.6179413272       24.7351447594      -19.4559492721  MEMB      191             0.0000000000
     23659       191  DOPC      O12            31.3560224333       26.4455550344      -19.2593688611  MEMB      191             0.0000000000
     23660       191  DOPC      O11            29.7183494075       26.3662391891      -17.6529126009  MEMB      191             0.0000000000
     23661       191  DOPC      C1             28.9945082740       27.4147264327      -18.3160589211  MEMB      191             0.0000000000
     23662       191  DOPC      HA             28.1420940849       26.9975016381      -18.9005030018  MEMB      191             0.0000000000
     23663       191  DOPC      HB             29.6377513489       28.0424335478      -18.9679403115  MEMB      191             0.0000000000
     23664       191  DOPC      C2             28.4616695903       28.2361694449      -17.1782416224  MEMB      191             0.0000000000
     23665       191  DOPC      HS             29.3735970846       28.4952105127      -16.5677557196  MEMB      191             0.0000000000
     23666       191  DOPC      O21            27.5485421675       27.3784180088      -16.5318538793  MEMB      191             0.0000000000
     23667       191  DOPC      C21            27.8995495679       27.0498848826      -15.3359878459  MEMB      191             0.0000000000
     23668       191  DOPC      O22            29.0292638310       26.9748693163      -14.8822756404  MEMB      191             0.0000000000
     23669       191  DOPC      C22            26.5866653270       26.7876913615      -14.6460393327  MEMB      191             0.0000000000
     23670       191  DOPC      H2R            26.3751137860       25.7215472887      -14.6590772910  MEMB      191             0.0000000000
     23671       191  DOPC      H2S            25.7590218617       27.1712666306      -15.2805344678  MEMB      191             0.0000000000
     23672       191  DOPC      C3             27.6640083693       29.5294243652      -17.3221448141  MEMB      191             0.0000000000
     23673       191  DOPC      HX             26.6080425205       29.3144150439      -17.5997836903  MEMB      191             0.0000000000
     23674       191  DOPC      HY             28.0875708720       30.2433076474      -18.0535642512  MEMB      191             0.0000000000
     23675       191  DOPC      O31            27.7275416852       29.9616386881      -15.9600814435  MEMB      191             0.0000000000
     23676       191  DOPC      C31            27.6035326044       31.1769148224      -15.5416830068  MEMB      191             0.0000000000
     23677       191  DOPC      O32            27.2911643806       32.1586523055      -16.1886315695  MEMB      191             0.0000000000
     23678       191  DOPC      C32            27.8420969484       31.1687231420      -14.0365464555  MEMB      191             0.0000000000
     23679       191  DOPC      H2X            27.5153105807       32.1490742426      -13.6423271364  MEMB      191             0.0000000000
     23680       191  DOPC      H2Y            27.2059865039       30.3709790844      -13.6130007437  MEMB      191             0.0000000000
     23681       191  DOPC      C23            26.4792789906       27.5061816410      -13.2917131261  MEMB      191             0.0000000000
     23682       191  DOPC      H3R            25.6592098342       27.0862404228      -12.6765934006  MEMB      191             0.0000000000
     23683       191  DOPC      H3S            26.1525398194       28.5008235687      -13.6558136682  MEMB      191             0.0000000000
     23684       191  DOPC      C24            27.7201201410       27.9050083356      -12.4739409735  MEMB      191             0.0000000000
     23685       191  DOPC      H4R            27.3497288645       28.8096939545      -11.9374293751  MEMB      191             0.0000000000
     23686       191  DOPC      H4S            28.5767534311       28.2377918774      -13.0815908129  MEMB      191             0.0000000000
     23687       191  DOPC      C25            28.2071129851       26.9817805650      -11.3695127732  MEMB      191             0.0000000000
     23688       191  DOPC      H5R            27.8664550681       25.9527271654      -11.5145564905  MEMB      191             0.0000000000
     23689       191  DOPC      H5S            27.7530260460       27.3973458189      -10.4411891828  MEMB      191             0.0000000000
     23690       191  DOPC      C26            29.7128956062       26.8547309351      -11.1645317475  MEMB      191             0.0000000000
     23691       191  DOPC      H6R            30.2613899737       27.0185273148      -12.1190065029  MEMB      191             0.0000000000
     23692       191  DOPC      H6S            29.9509625914       25.8175747380      -10.8238245568  MEMB      191             0.0000000000
     23693       191  DOPC      C27            30.1283358209       27.8143782711      -10.0593456682  MEMB      191             0.0000000000
     23694       191  DOPC      H7R            29.4524159725       27.7049477438       -9.1794094901  MEMB      191             0.0000000000
     23695       191  DOPC      H7S            29.9801901764       28.8379593659      -10.4537692161  MEMB      191             0.0000000000
     23696       191  DOPC      C28            31.5474380058       27.5735433894       -9.5765000644  MEMB      191             0.0000000000
     23697       191  DOPC      H8R            32.1395158323       27.0980580317      -10.3917250351  MEMB      191             0.0000000000
     23698       191  DOPC      H8S            31.4957299763       26.8664886806       -8.7177547221  MEMB      191             0.0000000000
     23699       191  DOPC      C29            32.1703061492       28.8821790064       -9.2191220198  MEMB      191             0.0000000000
     23700       191  DOPC      H9R            32.1144968792       29.6417932512      -10.0169418986  MEMB      191             0.0000000000
     23701       191  DOPC      C210           32.7496787431       29.2240808641       -8.0678350606  MEMB      191             0.0000000000
     23702       191  DOPC      H10R           33.2323776883       30.1901625246       -8.1188004182  MEMB      191             0.0000000000
     23703       191  DOPC      C211           32.9547604809       28.4151819941       -6.8038898911  MEMB      191             0.0000000000
     23704       191  DOPC      H11R           34.0457042356       28.2086245456       -6.7093617000  MEMB      191             0.0000000000
     23705       191  DOPC      H11S           32.4441842963       27.4358402214       -6.9064792133  MEMB      191             0.0000000000
     23706       191  DOPC      C212           32.5155370735       28.9590380396       -5.4144868978  MEMB      191             0.0000000000
     23707       191  DOPC      H12R           33.1766333915       29.7879638257       -5.0915912615  MEMB      191             0.0000000000
     23708       191  DOPC      H12S           32.6575059813       28.1370715174       -4.6745748824  MEMB      191             0.0000000000
     23709       191  DOPC      C213           31.0471096527       29.3924595643       -5.3399565428  MEMB      191             0.0000000000
     23710       191  DOPC      H13R           30.4373375762       28.5533256641       -5.7437238539  MEMB      191             0.0000000000
     23711       191  DOPC      H13S           30.8725795413       30.2626056838       -6.0092316486  MEMB      191             0.0000000000
     23712       191  DOPC      C214           30.5263566394       29.7359614317       -3.9245598801  MEMB      191             0.0000000000
     23713       191  DOPC      H14R           30.5441460982       28.8197767540       -3.3001896716  MEMB      191             0.0000000000
     23714       191  DOPC      H14S           29.4644625669       30.0590683331       -4.0242998784  MEMB      191             0.0000000000
     23715       191  DOPC      C215           31.2812419230       30.8467442375       -3.1787803588  MEMB      191             0.0000000000
     23716       191  DOPC      H15R           31.4294915217       31.6892045750       -3.8796538097  MEMB      191             0.0000000000
     23717       191  DOPC      H15S           32.2847053071       30.4783430335       -2.8809218196  MEMB      191             0.0000000000
     23718       191  DOPC      C216           30.5403332073       31.3858669654       -1.9424754023  MEMB      191             0.0000000000
     23719       191  DOPC      H16R           30.8998103582       30.8729287924       -1.0250699274  MEMB      191             0.0000000000
     23720       191  DOPC      H16S           29.4521827446       31.1701644610       -2.0463476188  MEMB      191             0.0000000000
     23721       191  DOPC      C217           30.6873094122       32.8932386255       -1.7356649495  MEMB      191             0.0000000000
     23722       191  DOPC      H17R           31.7682267737       33.1516632110       -1.6841425149  MEMB      191             0.0000000000
     23723       191  DOPC      H17S           30.2302841767       33.1567657625       -0.7527351682  MEMB      191             0.0000000000
     23724       191  DOPC      C218           30.0034037424       33.7032279258       -2.8356808484  MEMB      191             0.0000000000
     23725       191  DOPC      H18R           29.8387989101       34.7435688891       -2.4994471881  MEMB      191             0.0000000000
     23726       191  DOPC      H18S           29.0172418768       33.2617805997       -3.0944950722  MEMB      191             0.0000000000
     23727       191  DOPC      H18T           30.6269594531       33.7295345280       -3.7546298917  MEMB      191             0.0000000000
     23728       191  DOPC      C33            29.2662887887       30.8229777821      -13.5956040867  MEMB      191             0.0000000000
     23729       191  DOPC      H3X            29.9435323658       31.6032071131      -13.9895334923  MEMB      191             0.0000000000
     23730       191  DOPC      H3Y            29.5906229007       29.8367427505      -14.0004931223  MEMB      191             0.0000000000
     23731       191  DOPC      C34            29.4032595170       30.7937258542      -12.0743933979  MEMB      191             0.0000000000
     23732       191  DOPC      H4X            30.4163466893       30.4597809279      -11.7698109781  MEMB      191             0.0000000000
     23733       191  DOPC      H4Y            28.7255099981       30.0755114863      -11.5978543252  MEMB      191             0.0000000000
     23734       191  DOPC      C35            29.1035519555       32.1368818233      -11.4498033275  MEMB      191             0.0000000000
     23735       191  DOPC      H5X            28.0360124931       32.3953197994      -11.6164380787  MEMB      191             0.0000000000
     23736       191  DOPC      H5Y            29.7286658673       32.9144746895      -11.9424528286  MEMB      191             0.0000000000
     23737       191  DOPC      C36            29.3642324001       32.0846456321       -9.9567194712  MEMB      191             0.0000000000
     23738       191  DOPC      H6X            29.9471973456       31.1792558887       -9.6684527632  MEMB      191             0.0000000000
     23739       191  DOPC      H6Y            29.9681523999       32.9639081043       -9.6727775497  MEMB      191             0.0000000000
     23740       191  DOPC      C37            28.1003317495       32.1939112648       -9.1371033176  MEMB      191             0.0000000000
     23741       191  DOPC      H7X            28.4271111667       32.7008579430       -8.1968626384  MEMB      191             0.0000000000
     23742       191  DOPC      H7Y            27.3387232594       32.8319069006       -9.6404187363  MEMB      191             0.0000000000
     23743       191  DOPC      C38            27.5454107127       30.8330023135       -8.7848164240  MEMB      191             0.0000000000
     23744       191  DOPC      H8X            28.4055629207       30.1675859962       -8.5468093264  MEMB      191             0.0000000000
     23745       191  DOPC      H8Y            26.9932400579       30.3686687664       -9.6277954313  MEMB      191             0.0000000000
     23746       191  DOPC      C39            26.6968552246       31.1352591634       -7.5891299571  MEMB      191             0.0000000000
     23747       191  DOPC      H9X            25.9812787300       31.9707420647       -7.6949537098  MEMB      191             0.0000000000
     23748       191  DOPC      C310           26.7238309209       30.4102810955       -6.4782012566  MEMB      191             0.0000000000
     23749       191  DOPC      H10X           26.0837136153       30.6801239502       -5.6237152604  MEMB      191             0.0000000000
     23750       191  DOPC      C311           27.5940114838       29.2142796190       -6.3150333974  MEMB      191             0.0000000000
     23751       191  DOPC      H11X           28.5694774854       29.5527310223       -5.9311554773  MEMB      191             0.0000000000
     23752       191  DOPC      H11Y           27.7734220535       28.6686988827       -7.2714009921  MEMB      191             0.0000000000
     23753       191  DOPC      C312           26.9217850101       28.2369324393       -5.3665243152  MEMB      191             0.0000000000
     23754       191  DOPC      H12X           26.1237738086       27.6756602502       -5.9040668314  MEMB      191             0.0000000000
     23755       191  DOPC      H12Y           26.4471299966       28.7744657639       -4.5153449380  MEMB      191             0.0000000000
     23756       191  DOPC      C313           27.9285793283       27.2556663242       -4.7891745901  MEMB      191             0.0000000000
     23757       191  DOPC      H13X           28.4587095948       26.7382533726       -5.6179902270  MEMB      191             0.0000000000
     23758       191  DOPC      H13Y           28.7127014546       27.8192829063       -4.2471914391  MEMB      191             0.0000000000
     23759       191  DOPC      C314           27.2216928439       26.2606284339       -3.8664285437  MEMB      191             0.0000000000
     23760       191  DOPC      H14X           26.4513369487       25.7290428187       -4.4687906062  MEMB      191             0.0000000000
     23761       191  DOPC      H14Y           27.9469177617       25.5040659771       -3.5143791450  MEMB      191             0.0000000000
     23762       191  DOPC      C315           26.5327652211       26.8590792622       -2.6322453785  MEMB      191             0.0000000000
     23763       191  DOPC      H15X           26.3629044568       26.0373491281       -1.8992574329  MEMB      191             0.0000000000
     23764       191  DOPC      H15Y           25.5456504758       27.2716975299       -2.9116863884  MEMB      191             0.0000000000
     23765       191  DOPC      C316           27.3026289689       27.9678524366       -1.9295766150  MEMB      191             0.0000000000
     23766       191  DOPC      H16X           27.4114010895       28.8691810547       -2.5732500470  MEMB      191             0.0000000000
     23767       191  DOPC      H16Y           26.7298946179       28.2817409895       -1.0259745459  MEMB      191             0.0000000000
     23768       191  DOPC      C317           28.6687474861       27.4829755008       -1.4952142892  MEMB      191             0.0000000000
     23769       191  DOPC      H17X           28.5898199914       26.4797311802       -1.0239046324  MEMB      191             0.0000000000
     23770       191  DOPC      H17Y           29.3579476689       27.3782346414       -2.3592364163  MEMB      191             0.0000000000
     23771       191  DOPC      C318           29.2595088727       28.4387048495       -0.5039063930  MEMB      191             0.0000000000
     23772       191  DOPC      H18X           28.6661677522       28.4483626788        0.4328272201  MEMB      191             0.0000000000
     23773       191  DOPC      H18Y           30.2873182467       28.1037876822       -0.2998810040  MEMB      191             0.0000000000
     23774       191  DOPC      H18Z           29.2923784136       29.4640406815       -0.9077711949  MEMB      191             0.0000000000
     23775       192  DOPC      N              25.8740948374      -35.4753495467      -20.3175024232  MEMB      192             0.0000000000
     23776       192  DOPC      C12            25.5818249200      -33.9805468120      -20.3454104238  MEMB      192             0.0000000000
     23777       192  DOPC      H12A           25.5833167410      -33.6480493150      -21.3769572130  MEMB      192             0.0000000000
     23778       192  DOPC      H12B           26.3701187734      -33.4406930357      -19.8190271794  MEMB      192             0.0000000000
     23779       192  DOPC      C13            26.1292792908      -35.8914653965      -18.9068984218  MEMB      192             0.0000000000
     23780       192  DOPC      H13A           26.9696031831      -35.3353507055      -18.4902442646  MEMB      192             0.0000000000
     23781       192  DOPC      H13B           25.2756861599      -35.5757917261      -18.3029377707  MEMB      192             0.0000000000
     23782       192  DOPC      H13C           26.2885745011      -36.9480009261      -18.8228190451  MEMB      192             0.0000000000
     23783       192  DOPC      C14            27.0479192549      -35.8292075239      -21.1757602007  MEMB      192             0.0000000000
     23784       192  DOPC      H14A           27.1273569404      -36.9131072961      -21.2507759319  MEMB      192             0.0000000000
     23785       192  DOPC      H14B           26.9317527373      -35.4278908475      -22.1770022181  MEMB      192             0.0000000000
     23786       192  DOPC      H14C           27.9672616053      -35.4484593402      -20.7544788465  MEMB      192             0.0000000000
     23787       192  DOPC      C15            24.6774531377      -36.1680815166      -20.8755585668  MEMB      192             0.0000000000
     23788       192  DOPC      H15A           24.5502364271      -35.9020687786      -21.9257560274  MEMB      192             0.0000000000
     23789       192  DOPC      H15B           23.7869433979      -35.8136677689      -20.3642615154  MEMB      192             0.0000000000
     23790       192  DOPC      H15C           24.7339041171      -37.2417296024      -20.8115829956  MEMB      192             0.0000000000
     23791       192  DOPC      C11            24.2377224117      -33.5247043809      -19.7118784653  MEMB      192             0.0000000000
     23792       192  DOPC      H11A           24.1004903636      -32.4236442289      -19.8741600995  MEMB      192             0.0000000000
     23793       192  DOPC      H11B           23.3880680437      -33.9891815605      -20.2527444381  MEMB      192             0.0000000000
     23794       192  DOPC      P              24.9903274180      -32.9275275890      -17.3652137287  MEMB      192             0.0000000000
     23795       192  DOPC      O13            24.1780752761      -31.7332092659      -17.1234698575  MEMB      192             0.0000000000
     23796       192  DOPC      O14            26.3767100989      -32.7814001220      -17.8833335732  MEMB      192             0.0000000000
     23797       192  DOPC      O12            24.1677663523      -33.8797559401      -18.3221972995  MEMB      192             0.0000000000
     23798       192  DOPC      O11            25.0163013402      -33.7675940919      -16.0411156591  MEMB      192             0.0000000000
     23799       192  DOPC      C1             25.3903556011      -33.1391822438      -14.8198722567  MEMB      192             0.0000000000
     23800       192  DOPC      HA             24.6511228848      -33.4233579099      -14.0388826131  MEMB      192             0.0000000000
     23801       192  DOPC      HB             25.4088118690      -32.0233474726      -14.8698577965  MEMB      192             0.0000000000
     23802       192  DOPC      C2             26.7872094710      -33.6076893216      -14.4016822755  MEMB      192             0.0000000000
     23803       192  DOPC      HS             27.5249226309      -33.2347276848      -15.1501915790  MEMB      192             0.0000000000
     23804       192  DOPC      O21            26.7639262362      -35.0280954706      -14.3042189637  MEMB      192             0.0000000000
     23805       192  DOPC      C21            27.5052858286      -35.7182698236      -15.1163794680  MEMB      192             0.0000000000
     23806       192  DOPC      O22            28.2314522382      -35.3155368281      -16.0077282941  MEMB      192             0.0000000000
     23807       192  DOPC      C22            27.4159743740      -37.1485268262      -14.6489674073  MEMB      192             0.0000000000
     23808       192  DOPC      H2R            27.7435415319      -37.8087444218      -15.4766234170  MEMB      192             0.0000000000
     23809       192  DOPC      H2S            26.3702551889      -37.3953159898      -14.3872431614  MEMB      192             0.0000000000
     23810       192  DOPC      C3             27.1517007344      -33.0544466460      -13.0142440333  MEMB      192             0.0000000000
     23811       192  DOPC      HX             27.2293831821      -31.9485392329      -13.0782385453  MEMB      192             0.0000000000
     23812       192  DOPC      HY             28.1555087570      -33.4784881823      -12.7693901395  MEMB      192             0.0000000000
     23813       192  DOPC      O31            26.1267125568      -33.4187941445      -12.0628429447  MEMB      192             0.0000000000
     23814       192  DOPC      C31            26.5725543065      -33.6352084613      -10.8426620763  MEMB      192             0.0000000000
     23815       192  DOPC      O32            27.7312262566      -33.5585845946      -10.4799580127  MEMB      192             0.0000000000
     23816       192  DOPC      C32            25.3967133161      -33.8610162966       -9.9102252211  MEMB      192             0.0000000000
     23817       192  DOPC      H2X            24.5309096642      -34.2570944593      -10.4720834812  MEMB      192             0.0000000000
     23818       192  DOPC      H2Y            25.7190342887      -34.5746329017       -9.1248475459  MEMB      192             0.0000000000
     23819       192  DOPC      C23            28.3379022033      -37.3091681219      -13.4298810400  MEMB      192             0.0000000000
     23820       192  DOPC      H3R            29.3517099512      -36.8995155124      -13.6335137201  MEMB      192             0.0000000000
     23821       192  DOPC      H3S            28.4108176400      -38.3925226716      -13.2536102695  MEMB      192             0.0000000000
     23822       192  DOPC      C24            27.8138912907      -36.8072337803      -12.0906194930  MEMB      192             0.0000000000
     23823       192  DOPC      H4R            27.6266556442      -35.7170900539      -12.1234674963  MEMB      192             0.0000000000
     23824       192  DOPC      H4S            28.6041268374      -36.9830461646      -11.3219213785  MEMB      192             0.0000000000
     23825       192  DOPC      C25            26.5597921128      -37.5736255641      -11.6722420320  MEMB      192             0.0000000000
     23826       192  DOPC      H5R            26.6994907439      -38.6626599473      -11.8457543726  MEMB      192             0.0000000000
     23827       192  DOPC      H5S            25.6930023690      -37.2463432462      -12.2905018571  MEMB      192             0.0000000000
     23828       192  DOPC      C26            26.2676407339      -37.3567492571      -10.1995359683  MEMB      192             0.0000000000
     23829       192  DOPC      H6R            26.1969675957      -36.2680622517      -10.0471732092  MEMB      192             0.0000000000
     23830       192  DOPC      H6S            27.1034091907      -37.7110293479       -9.5572271330  MEMB      192             0.0000000000
     23831       192  DOPC      C27            24.9590322709      -37.9802809634       -9.7294630378  MEMB      192             0.0000000000
     23832       192  DOPC      H7R            25.1563754706      -39.0397415754       -9.4502437131  MEMB      192             0.0000000000
     23833       192  DOPC      H7S            24.2172406580      -38.0039022307      -10.5599625277  MEMB      192             0.0000000000
     23834       192  DOPC      C28            24.4363329449      -37.1709236425       -8.5328092029  MEMB      192             0.0000000000
     23835       192  DOPC      H8R            25.3032701176      -36.6922414672       -8.0210635098  MEMB      192             0.0000000000
     23836       192  DOPC      H8S            24.0158548678      -37.8571355647       -7.7955741324  MEMB      192             0.0000000000
     23837       192  DOPC      C29            23.3874360135      -36.1579654159       -8.8937432507  MEMB      192             0.0000000000
     23838       192  DOPC      H9R            23.2971664556      -35.9347143912       -9.9683576389  MEMB      192             0.0000000000
     23839       192  DOPC      C210           22.5474064057      -35.5889415563       -8.0137445970  MEMB      192             0.0000000000
     23840       192  DOPC      H10R           21.8208314642      -34.8401115040       -8.3720651576  MEMB      192             0.0000000000
     23841       192  DOPC      C211           22.5211586331      -35.8770829924       -6.5302833010  MEMB      192             0.0000000000
     23842       192  DOPC      H11R           23.0439681042      -36.8225434769       -6.2814512569  MEMB      192             0.0000000000
     23843       192  DOPC      H11S           21.4588631574      -36.0476888926       -6.2528577686  MEMB      192             0.0000000000
     23844       192  DOPC      C212           23.0684008445      -34.7900236854       -5.5790040031  MEMB      192             0.0000000000
     23845       192  DOPC      H12R           22.5743498196      -34.9334445812       -4.5907356232  MEMB      192             0.0000000000
     23846       192  DOPC      H12S           22.7729862915      -33.7879855772       -5.9508305163  MEMB      192             0.0000000000
     23847       192  DOPC      C213           24.5837875377      -34.8032447309       -5.2999304462  MEMB      192             0.0000000000
     23848       192  DOPC      H13R           24.8319271201      -33.8539056717       -4.7739126387  MEMB      192             0.0000000000
     23849       192  DOPC      H13S           25.1955205699      -34.8467471800       -6.2243920805  MEMB      192             0.0000000000
     23850       192  DOPC      C214           25.0032350670      -35.9632146928       -4.4115528330  MEMB      192             0.0000000000
     23851       192  DOPC      H14R           24.9131896394      -36.8957815179       -4.9796815066  MEMB      192             0.0000000000
     23852       192  DOPC      H14S           24.3260567852      -36.0194589767       -3.5358106171  MEMB      192             0.0000000000
     23853       192  DOPC      C215           26.4256556315      -35.8774455353       -3.9143825845  MEMB      192             0.0000000000
     23854       192  DOPC      H15R           27.1136588128      -35.7980327205       -4.7895317135  MEMB      192             0.0000000000
     23855       192  DOPC      H15S           26.7014602175      -36.8070505009       -3.3658808572  MEMB      192             0.0000000000
     23856       192  DOPC      C216           26.6188096127      -34.6773691718       -3.0014041023  MEMB      192             0.0000000000
     23857       192  DOPC      H16R           26.6432674759      -33.7378355766       -3.5998045220  MEMB      192             0.0000000000
     23858       192  DOPC      H16S           27.6159044495      -34.8588747876       -2.5775123598  MEMB      192             0.0000000000
     23859       192  DOPC      C217           25.7092903679      -34.4848449599       -1.7852802614  MEMB      192             0.0000000000
     23860       192  DOPC      H17R           24.6374556618      -34.6794994429       -1.9914753997  MEMB      192             0.0000000000
     23861       192  DOPC      H17S           25.7884870193      -33.4063729193       -1.5131544781  MEMB      192             0.0000000000
     23862       192  DOPC      C218           26.2125427765      -35.2434836975       -0.5645637727  MEMB      192             0.0000000000
     23863       192  DOPC      H18R           25.8250002638      -34.7579227414        0.3564789954  MEMB      192             0.0000000000
     23864       192  DOPC      H18S           27.3205702740      -35.2037763207       -0.5142895940  MEMB      192             0.0000000000
     23865       192  DOPC      H18T           25.8941030217      -36.3067760123       -0.6013244016  MEMB      192             0.0000000000
     23866       192  DOPC      C33            25.0646302649      -32.5514441937       -9.2065176734  MEMB      192             0.0000000000
     23867       192  DOPC      H3X            24.6240343690      -31.8354197046       -9.9320898574  MEMB      192             0.0000000000
     23868       192  DOPC      H3Y            26.0246043087      -32.1792819200       -8.7777017165  MEMB      192             0.0000000000
     23869       192  DOPC      C34            24.0891208955      -32.6430620967       -8.0563752444  MEMB      192             0.0000000000
     23870       192  DOPC      H4X            24.3970794893      -33.5131508138       -7.4590258791  MEMB      192             0.0000000000
     23871       192  DOPC      H4Y            23.0735691774      -32.8402640012       -8.4618325133  MEMB      192             0.0000000000
     23872       192  DOPC      C35            24.0733450888      -31.3948807306       -7.1603777831  MEMB      192             0.0000000000
     23873       192  DOPC      H5X            23.2281618497      -31.5115679387       -6.4648317418  MEMB      192             0.0000000000
     23874       192  DOPC      H5Y            23.8705170534      -30.4958994314       -7.7740308486  MEMB      192             0.0000000000
     23875       192  DOPC      C36            25.3630142399      -31.1486056087       -6.3617477177  MEMB      192             0.0000000000
     23876       192  DOPC      H6X            25.6681695547      -32.0984075799       -5.8711351289  MEMB      192             0.0000000000
     23877       192  DOPC      H6Y            26.1418195687      -30.8652209517       -7.0952886684  MEMB      192             0.0000000000
     23878       192  DOPC      C37            25.2701043104      -30.0221684735       -5.3075237560  MEMB      192             0.0000000000
     23879       192  DOPC      H7X            24.7636860960      -29.1447650798       -5.7538468022  MEMB      192             0.0000000000
     23880       192  DOPC      H7Y            24.5884806456      -30.4094863209       -4.5234717561  MEMB      192             0.0000000000
     23881       192  DOPC      C38            26.5633188828      -29.5621264562       -4.5393254232  MEMB      192             0.0000000000
     23882       192  DOPC      H8X            26.8749569319      -30.4566558557       -3.9619866601  MEMB      192             0.0000000000
     23883       192  DOPC      H8Y            26.1813023066      -28.8038329410       -3.8263567231  MEMB      192             0.0000000000
     23884       192  DOPC      C39            27.8444690500      -28.9646824356       -5.0698998603  MEMB      192             0.0000000000
     23885       192  DOPC      H9X            28.0950577091      -27.9440349960       -4.7295345878  MEMB      192             0.0000000000
     23886       192  DOPC      C310           28.7181366213      -29.6273870394       -5.8393529651  MEMB      192             0.0000000000
     23887       192  DOPC      H10X           29.6242432545      -29.1169705319       -6.1898506222  MEMB      192             0.0000000000
     23888       192  DOPC      C311           28.5265236145      -31.0537819531       -6.2801918907  MEMB      192             0.0000000000
     23889       192  DOPC      H11X           28.3575215985      -31.0867380185       -7.3767531760  MEMB      192             0.0000000000
     23890       192  DOPC      H11Y           27.6427683988      -31.4811008243       -5.7715031747  MEMB      192             0.0000000000
     23891       192  DOPC      C312           29.5410633751      -32.1392088704       -5.9553352797  MEMB      192             0.0000000000
     23892       192  DOPC      H12X           30.5091232026      -31.9582686800       -6.4400357361  MEMB      192             0.0000000000
     23893       192  DOPC      H12Y           29.0887466086      -33.0927629706       -6.3143957840  MEMB      192             0.0000000000
     23894       192  DOPC      C313           29.7583355497      -32.3130073640       -4.4770429252  MEMB      192             0.0000000000
     23895       192  DOPC      H13X           30.7739060130      -31.9600206084       -4.2601141860  MEMB      192             0.0000000000
     23896       192  DOPC      H13Y           29.0303261848      -31.6178666929       -4.0115558948  MEMB      192             0.0000000000
     23897       192  DOPC      C314           29.6423269560      -33.7589156108       -3.9874459089  MEMB      192             0.0000000000
     23898       192  DOPC      H14X           28.7147803184      -34.2221234463       -4.3759088351  MEMB      192             0.0000000000
     23899       192  DOPC      H14Y           30.5017917138      -34.3734365504       -4.3139292730  MEMB      192             0.0000000000
     23900       192  DOPC      C315           29.8260868768      -33.8876610708       -2.4959940818  MEMB      192             0.0000000000
     23901       192  DOPC      H15X           30.9202768266      -33.7840892981       -2.3096946164  MEMB      192             0.0000000000
     23902       192  DOPC      H15Y           29.5726620527      -34.9169950841       -2.1521737764  MEMB      192             0.0000000000
     23903       192  DOPC      C316           29.0583943922      -32.8265056144       -1.7255933447  MEMB      192             0.0000000000
     23904       192  DOPC      H16X           29.0582228418      -31.8051406930       -2.1459916807  MEMB      192             0.0000000000
     23905       192  DOPC      H16Y           27.9867061736      -33.0809457932       -1.6250558481  MEMB      192             0.0000000000
     23906       192  DOPC      C317           29.7234785637      -32.6485166254       -0.3989186855  MEMB      192             0.0000000000
     23907       192  DOPC      H17X           30.3504780114      -33.5472742089       -0.2021066506  MEMB      192             0.0000000000
     23908       192  DOPC      H17Y           30.3866705167      -31.7542173811       -0.4655416246  MEMB      192             0.0000000000
     23909       192  DOPC      C318           28.6826951606      -32.4903340111        0.6678400614  MEMB      192             0.0000000000
     23910       192  DOPC      H18X           29.1703429581      -32.6298981167        1.6500066255  MEMB      192             0.0000000000
     23911       192  DOPC      H18Y           28.2028525874      -31.4880025166        0.6109109346  MEMB      192             0.0000000000
     23912       192  DOPC      H18Z           27.8888435565      -33.2588716985        0.5666861441  MEMB      192             0.0000000000
     23913       193  DOPC      N             -26.3816556772      -36.3674315210      -20.6347831710  MEMB      193             0.0000000000
     23914       193  DOPC      C12           -26.3625983702      -34.8588397388      -20.3248021623  MEMB      193             0.0000000000
     23915       193  DOPC      H12A          -26.8476250896      -34.3723718867      -21.1689484704  MEMB      193             0.0000000000
     23916       193  DOPC      H12B          -25.3451673074      -34.5099549970      -20.2469821775  MEMB      193             0.0000000000
     23917       193  DOPC      C13           -25.8695827833      -37.1598707391      -19.4705925143  MEMB      193             0.0000000000
     23918       193  DOPC      H13A          -26.4767727546      -36.9285624868      -18.5931322212  MEMB      193             0.0000000000
     23919       193  DOPC      H13B          -25.9606944872      -38.2249361491      -19.6253321619  MEMB      193             0.0000000000
     23920       193  DOPC      H13C          -24.8397802917      -36.9378210959      -19.2387803565  MEMB      193             0.0000000000
     23921       193  DOPC      C14           -25.6080367568      -36.5950079244      -21.8781956806  MEMB      193             0.0000000000
     23922       193  DOPC      H14A          -24.5487376932      -36.4556315415      -21.7101280657  MEMB      193             0.0000000000
     23923       193  DOPC      H14B          -25.7728005946      -37.5999396548      -22.2603686709  MEMB      193             0.0000000000
     23924       193  DOPC      H14C          -25.9167302344      -35.9138096019      -22.6689192075  MEMB      193             0.0000000000
     23925       193  DOPC      C15           -27.7644285396      -36.9100912293      -20.9085454278  MEMB      193             0.0000000000
     23926       193  DOPC      H15A          -28.2275990173      -36.4862084482      -21.7873439666  MEMB      193             0.0000000000
     23927       193  DOPC      H15B          -28.4344769315      -36.6837151785      -20.0672015396  MEMB      193             0.0000000000
     23928       193  DOPC      H15C          -27.7815252754      -37.9790430764      -20.9959088822  MEMB      193             0.0000000000
     23929       193  DOPC      C11           -27.1202287206      -34.3496254980      -19.0924070901  MEMB      193             0.0000000000
     23930       193  DOPC      H11A          -26.6127220885      -34.5980428118      -18.1305580580  MEMB      193             0.0000000000
     23931       193  DOPC      H11B          -27.2812058699      -33.2477635054      -19.1202714709  MEMB      193             0.0000000000
     23932       193  DOPC      P             -29.6006101837      -35.0023544544      -18.3473409678  MEMB      193             0.0000000000
     23933       193  DOPC      O13           -30.1294364418      -36.3855501773      -18.3332750819  MEMB      193             0.0000000000
     23934       193  DOPC      O14           -30.4697687885      -33.9054025616      -18.8077154400  MEMB      193             0.0000000000
     23935       193  DOPC      O12           -28.3430553923      -34.9782105783      -19.2338638693  MEMB      193             0.0000000000
     23936       193  DOPC      O11           -28.9490487044      -34.7244292861      -16.9327916006  MEMB      193             0.0000000000
     23937       193  DOPC      C1            -28.3512390377      -35.8507296644      -16.2694203904  MEMB      193             0.0000000000
     23938       193  DOPC      HA            -27.4996955616      -35.4915459909      -15.6606125849  MEMB      193             0.0000000000
     23939       193  DOPC      HB            -27.9040652885      -36.5970645662      -16.9741207411  MEMB      193             0.0000000000
     23940       193  DOPC      C2            -29.3860321144      -36.5832095449      -15.3726323361  MEMB      193             0.0000000000
     23941       193  DOPC      HS            -30.3894450269      -36.5233699628      -15.8495752417  MEMB      193             0.0000000000
     23942       193  DOPC      O21           -29.3820387438      -35.8948707133      -14.1000050535  MEMB      193             0.0000000000
     23943       193  DOPC      C21           -29.9750959005      -36.3424068228      -13.0041308303  MEMB      193             0.0000000000
     23944       193  DOPC      O22           -30.5061121628      -37.4166287376      -12.8510130320  MEMB      193             0.0000000000
     23945       193  DOPC      C22           -29.8270888281      -35.2724400579      -11.9105897757  MEMB      193             0.0000000000
     23946       193  DOPC      H2R           -30.7030559575      -34.6100586423      -11.9681830732  MEMB      193             0.0000000000
     23947       193  DOPC      H2S           -28.9400813729      -34.6738015884      -12.1925615802  MEMB      193             0.0000000000
     23948       193  DOPC      C3            -28.9889008653      -38.0833290284      -15.3037140803  MEMB      193             0.0000000000
     23949       193  DOPC      HX            -28.9501240913      -38.4511613859      -16.3550589411  MEMB      193             0.0000000000
     23950       193  DOPC      HY            -29.7796721569      -38.6603170995      -14.7840961432  MEMB      193             0.0000000000
     23951       193  DOPC      O31           -27.6857345860      -38.2221813304      -14.7285384965  MEMB      193             0.0000000000
     23952       193  DOPC      C31           -27.7389049204      -38.6393766472      -13.4706820996  MEMB      193             0.0000000000
     23953       193  DOPC      O32           -28.5546384805      -39.4126248457      -13.0038663452  MEMB      193             0.0000000000
     23954       193  DOPC      C32           -26.6771742207      -37.9424354347      -12.6701617118  MEMB      193             0.0000000000
     23955       193  DOPC      H2X           -26.7945101695      -38.2129387557      -11.6031099144  MEMB      193             0.0000000000
     23956       193  DOPC      H2Y           -25.7517561023      -38.4000732864      -13.0107042174  MEMB      193             0.0000000000
     23957       193  DOPC      C23           -29.6736373381      -35.7032878150      -10.4228277408  MEMB      193             0.0000000000
     23958       193  DOPC      H3R           -30.6747572292      -35.8688309207       -9.9766062392  MEMB      193             0.0000000000
     23959       193  DOPC      H3S           -29.2148987890      -34.8532055833       -9.8645651778  MEMB      193             0.0000000000
     23960       193  DOPC      C24           -28.8195701961      -36.9402611147      -10.1531609419  MEMB      193             0.0000000000
     23961       193  DOPC      H4R           -27.8873111134      -36.6559053311       -9.6337035436  MEMB      193             0.0000000000
     23962       193  DOPC      H4S           -28.5604310033      -37.4371879575      -11.0987867740  MEMB      193             0.0000000000
     23963       193  DOPC      C25           -29.5289642934      -38.0027884000       -9.3226282909  MEMB      193             0.0000000000
     23964       193  DOPC      H5R           -30.0650523926      -38.6509123323      -10.0474808414  MEMB      193             0.0000000000
     23965       193  DOPC      H5S           -30.2525764305      -37.5099053101       -8.6432271650  MEMB      193             0.0000000000
     23966       193  DOPC      C26           -28.5808724446      -38.8103259019       -8.4410855374  MEMB      193             0.0000000000
     23967       193  DOPC      H6R           -27.6889646655      -39.1080442190       -9.0312810344  MEMB      193             0.0000000000
     23968       193  DOPC      H6S           -29.0928337725      -39.7367201755       -8.0998189495  MEMB      193             0.0000000000
     23969       193  DOPC      C27           -28.1945206484      -37.9643581823       -7.2182574983  MEMB      193             0.0000000000
     23970       193  DOPC      H7R           -29.0549497618      -37.9068489419       -6.5147403837  MEMB      193             0.0000000000
     23971       193  DOPC      H7S           -28.0206684948      -36.9393179029       -7.5915525145  MEMB      193             0.0000000000
     23972       193  DOPC      C28           -26.9480087829      -38.3996340036       -6.4587187260  MEMB      193             0.0000000000
     23973       193  DOPC      H8R           -26.8744095450      -37.8278386017       -5.5075003901  MEMB      193             0.0000000000
     23974       193  DOPC      H8S           -26.0321183879      -38.1440271697       -7.0437941431  MEMB      193             0.0000000000
     23975       193  DOPC      C29           -27.0408066691      -39.8782271448       -6.2492106343  MEMB      193             0.0000000000
     23976       193  DOPC      H9R           -26.8036179614      -40.4488906755       -7.1570511125  MEMB      193             0.0000000000
     23977       193  DOPC      C210          -27.4343901975      -40.5660700275       -5.1710465023  MEMB      193             0.0000000000
     23978       193  DOPC      H10R          -27.4475069330      -41.6622649815       -5.2340851056  MEMB      193             0.0000000000
     23979       193  DOPC      C211          -27.9081120908      -39.9859823830       -3.8760501977  MEMB      193             0.0000000000
     23980       193  DOPC      H11R          -28.8264014884      -40.5123148586       -3.5613630839  MEMB      193             0.0000000000
     23981       193  DOPC      H11S          -28.2685169398      -38.9604506612       -4.0899565463  MEMB      193             0.0000000000
     23982       193  DOPC      C212          -27.0924844368      -40.0425704554       -2.5810264794  MEMB      193             0.0000000000
     23983       193  DOPC      H12R          -26.0074318350      -40.1581619363       -2.6927101643  MEMB      193             0.0000000000
     23984       193  DOPC      H12S          -27.4291934679      -40.8984016277       -1.9526137576  MEMB      193             0.0000000000
     23985       193  DOPC      C213          -27.2614928489      -38.7306151463       -1.8379498282  MEMB      193             0.0000000000
     23986       193  DOPC      H13R          -26.5701498279      -38.7861538069       -0.9933128073  MEMB      193             0.0000000000
     23987       193  DOPC      H13S          -28.2495061282      -38.7093893974       -1.3636762889  MEMB      193             0.0000000000
     23988       193  DOPC      C214          -26.8857880357      -37.5241671445       -2.7278266118  MEMB      193             0.0000000000
     23989       193  DOPC      H14R          -27.6758561362      -37.1408185567       -3.3579150696  MEMB      193             0.0000000000
     23990       193  DOPC      H14S          -26.1264857509      -37.8693248158       -3.4402973530  MEMB      193             0.0000000000
     23991       193  DOPC      C215          -26.2166191554      -36.4045267641       -1.9717098375  MEMB      193             0.0000000000
     23992       193  DOPC      H15R          -25.6094514999      -37.0314614677       -1.3631620098  MEMB      193             0.0000000000
     23993       193  DOPC      H15S          -26.9340282762      -35.8524305797       -1.3344478912  MEMB      193             0.0000000000
     23994       193  DOPC      C216          -25.2004217239      -35.5547800684       -2.7336963617  MEMB      193             0.0000000000
     23995       193  DOPC      H16R          -24.8953977694      -34.6408962373       -2.2257264200  MEMB      193             0.0000000000
     23996       193  DOPC      H16S          -25.7311888874      -35.1824446463       -3.6382223205  MEMB      193             0.0000000000
     23997       193  DOPC      C217          -23.8132508679      -36.1548128986       -3.0932928718  MEMB      193             0.0000000000
     23998       193  DOPC      H17R          -23.7443950502      -35.3604879668       -3.8218379000  MEMB      193             0.0000000000
     23999       193  DOPC      H17S          -23.8513975109      -37.0719933102       -3.6992740802  MEMB      193             0.0000000000
     24000       193  DOPC      C218          -22.4450843042      -35.9231381533       -2.3615644623  MEMB      193             0.0000000000
     24001       193  DOPC      H18R          -21.7148109614      -35.3925361082       -2.9955089755  MEMB      193             0.0000000000
     24002       193  DOPC      H18S          -21.8971200866      -36.8703637919       -2.2091289083  MEMB      193             0.0000000000
     24003       193  DOPC      H18T          -22.4731631582      -35.3359750151       -1.4254343992  MEMB      193             0.0000000000
     24004       193  DOPC      C33           -26.6927895111      -36.4202380822      -12.8826846417  MEMB      193             0.0000000000
     24005       193  DOPC      H3X           -27.5102864491      -35.9914329466      -12.2941532046  MEMB      193             0.0000000000
     24006       193  DOPC      H3Y           -26.8455564183      -36.1456520072      -13.9376791580  MEMB      193             0.0000000000
     24007       193  DOPC      C34           -25.4677681957      -35.6907389219      -12.3954173124  MEMB      193             0.0000000000
     24008       193  DOPC      H4X           -25.5864359326      -34.6039060426      -12.6070379806  MEMB      193             0.0000000000
     24009       193  DOPC      H4Y           -24.5798527521      -36.0516712974      -12.9381788686  MEMB      193             0.0000000000
     24010       193  DOPC      C35           -25.2419037937      -35.9599501611      -10.9317459675  MEMB      193             0.0000000000
     24011       193  DOPC      H5X           -24.4860324348      -36.7616326681      -10.8051395947  MEMB      193             0.0000000000
     24012       193  DOPC      H5Y           -26.1892965241      -36.3439835265      -10.5118992667  MEMB      193             0.0000000000
     24013       193  DOPC      C36           -24.8639510671      -34.7545178805      -10.1008137769  MEMB      193             0.0000000000
     24014       193  DOPC      H6X           -23.8394649308      -34.4085112222      -10.3616963683  MEMB      193             0.0000000000
     24015       193  DOPC      H6Y           -25.5696269305      -33.9075301380      -10.2428509854  MEMB      193             0.0000000000
     24016       193  DOPC      C37           -24.8738302072      -35.2359149829       -8.6608577671  MEMB      193             0.0000000000
     24017       193  DOPC      H7X           -24.5819486184      -36.3135475300       -8.6309935857  MEMB      193             0.0000000000
     24018       193  DOPC      H7Y           -24.0943995113      -34.6824412934       -8.1348620078  MEMB      193             0.0000000000
     24019       193  DOPC      C38           -26.1911074580      -35.0149696742       -7.9208520882  MEMB      193             0.0000000000
     24020       193  DOPC      H8X           -26.2785496158      -35.8445386567       -7.1893644694  MEMB      193             0.0000000000
     24021       193  DOPC      H8Y           -27.0416963428      -35.0675290969       -8.6334480677  MEMB      193             0.0000000000
     24022       193  DOPC      C39           -26.1769174421      -33.7080433776       -7.1828865389  MEMB      193             0.0000000000
     24023       193  DOPC      H9X           -25.1744067069      -33.2856802369       -7.0185705652  MEMB      193             0.0000000000
     24024       193  DOPC      C310          -27.2390723633      -33.0544441287       -6.6954559079  MEMB      193             0.0000000000
     24025       193  DOPC      H10X          -27.0929931732      -32.0597972707       -6.2605892072  MEMB      193             0.0000000000
     24026       193  DOPC      C311          -28.6670983746      -33.4940680680       -6.7855570521  MEMB      193             0.0000000000
     24027       193  DOPC      H11X          -28.9422866902      -33.6619037938       -7.8491852463  MEMB      193             0.0000000000
     24028       193  DOPC      H11Y          -29.3341373662      -32.6914312656       -6.4060081250  MEMB      193             0.0000000000
     24029       193  DOPC      C312          -28.9063431866      -34.7843274578       -5.9938250851  MEMB      193             0.0000000000
     24030       193  DOPC      H12X          -28.1330495227      -35.5349803088       -6.2304395992  MEMB      193             0.0000000000
     24031       193  DOPC      H12Y          -29.8827748068      -35.2136620528       -6.3022386290  MEMB      193             0.0000000000
     24032       193  DOPC      C313          -28.8675338763      -34.6215048733       -4.4749275671  MEMB      193             0.0000000000
     24033       193  DOPC      H13X          -27.8120374556      -34.6521037985       -4.1256690603  MEMB      193             0.0000000000
     24034       193  DOPC      H13Y          -29.2831532653      -33.6290826941       -4.1979284751  MEMB      193             0.0000000000
     24035       193  DOPC      C314          -29.6639064691      -35.7324051584       -3.7897699439  MEMB      193             0.0000000000
     24036       193  DOPC      H14X          -30.6591241979      -35.7586433756       -4.1916468904  MEMB      193             0.0000000000
     24037       193  DOPC      H14Y          -29.3152909270      -36.7368131165       -4.0631953213  MEMB      193             0.0000000000
     24038       193  DOPC      C315          -29.8138560448      -35.5335520388       -2.2911416693  MEMB      193             0.0000000000
     24039       193  DOPC      H15X          -30.5449836441      -34.7115617417       -2.1658195693  MEMB      193             0.0000000000
     24040       193  DOPC      H15Y          -28.8157687188      -35.2204686428       -1.9389259141  MEMB      193             0.0000000000
     24041       193  DOPC      C316          -30.3551583734      -36.7582030211       -1.5503208523  MEMB      193             0.0000000000
     24042       193  DOPC      H16X          -31.2858963731      -37.0020966223       -2.0702626290  MEMB      193             0.0000000000
     24043       193  DOPC      H16Y          -29.6693579655      -37.5865465791       -1.7277560570  MEMB      193             0.0000000000
     24044       193  DOPC      C317          -30.7819776370      -36.6499986754       -0.0772571823  MEMB      193             0.0000000000
     24045       193  DOPC      H17X          -31.3174687260      -37.5777158073        0.2261864462  MEMB      193             0.0000000000
     24046       193  DOPC      H17Y          -29.8988199339      -36.6083607622        0.5935981867  MEMB      193             0.0000000000
     24047       193  DOPC      C318          -31.6943951716      -35.4460204910        0.1479815853  MEMB      193             0.0000000000
     24048       193  DOPC      H18X          -31.7569559339      -35.1726629116        1.2185654348  MEMB      193             0.0000000000
     24049       193  DOPC      H18Y          -31.2911635246      -34.5607707063       -0.3672616956  MEMB      193             0.0000000000
     24050       193  DOPC      H18Z          -32.7075758781      -35.6382405710       -0.2664788870  MEMB      193             0.0000000000
     24051       194  23SM      N              27.1571899705       36.6451964159      -26.7763706920  MEMB      194             0.0000000000
     24052       194  23SM      C15            27.3568425111       38.0679179021      -26.4038219464  MEMB      194             0.0000000000
     24053       194  23SM      H15A           26.6094448337       38.4046310334      -25.6867020436  MEMB      194             0.0000000000
     24054       194  23SM      H15B           27.2694958686       38.7274160664      -27.2545374514  MEMB      194             0.0000000000
     24055       194  23SM      H15C           28.3467153823       38.2231402859      -25.9788686826  MEMB      194             0.0000000000
     24056       194  23SM      C14            25.7633470035       36.4849555013      -27.3207114175  MEMB      194             0.0000000000
     24057       194  23SM      H14A           25.6819891710       37.0034402096      -28.2691692665  MEMB      194             0.0000000000
     24058       194  23SM      H14B           25.0261167144       36.8981472317      -26.6379541173  MEMB      194             0.0000000000
     24059       194  23SM      H14C           25.5213428907       35.4412758107      -27.4817667927  MEMB      194             0.0000000000
     24060       194  23SM      C13            28.1502221197       36.2635736387      -27.8318233343  MEMB      194             0.0000000000
     24061       194  23SM      H13A           28.1190709128       36.9063500777      -28.6974204837  MEMB      194             0.0000000000
     24062       194  23SM      H13B           27.9953411659       35.2365349013      -28.1701891798  MEMB      194             0.0000000000
     24063       194  23SM      H13C           29.1562467043       36.2672405486      -27.4050976876  MEMB      194             0.0000000000
     24064       194  23SM      C12            27.3821823337       35.7730820935      -25.5490422029  MEMB      194             0.0000000000
     24065       194  23SM      H12A           27.1400179491       34.7410806017      -25.8040963264  MEMB      194             0.0000000000
     24066       194  23SM      H12B           26.7136984398       36.0720349690      -24.7546954621  MEMB      194             0.0000000000
     24067       194  23SM      C11            28.8294868762       35.7203623026      -24.9886732792  MEMB      194             0.0000000000
     24068       194  23SM      H11A           28.7989053311       35.2840536599      -23.9673310906  MEMB      194             0.0000000000
     24069       194  23SM      H11B           29.2285122979       36.7488046303      -24.8660736612  MEMB      194             0.0000000000
     24070       194  23SM      P              29.5063667232       33.4399303546      -26.0827116795  MEMB      194             0.0000000000
     24071       194  23SM      O13            28.1272534215       33.2209767973      -26.6079711803  MEMB      194             0.0000000000
     24072       194  23SM      O14            30.6163720502       32.9894752695      -26.9386596633  MEMB      194             0.0000000000
     24073       194  23SM      O11            29.6038553793       32.8068589425      -24.6073349872  MEMB      194             0.0000000000
     24074       194  23SM      O12            29.7184259562       34.9887625764      -25.8361838769  MEMB      194             0.0000000000
     24075       194  23SM      C1S            30.8041422842       33.0634979864      -23.8570153059  MEMB      194             0.0000000000
     24076       194  23SM      H1S            31.4725656081       33.8040608657      -24.3582863885  MEMB      194             0.0000000000
     24077       194  23SM      H1T            31.3953763834       32.1232188011      -23.7794616845  MEMB      194             0.0000000000
     24078       194  23SM      NF             31.7464325176       34.1796962960      -21.9094979614  MEMB      194             0.0000000000
     24079       194  23SM      HNF            32.1984498908       33.7060131407      -21.1761197856  MEMB      194             0.0000000000
     24080       194  23SM      C2S            30.5228758287       33.5938327546      -22.4134193585  MEMB      194             0.0000000000
     24081       194  23SM      H2S            29.7555540307       34.3928641636      -22.4347877157  MEMB      194             0.0000000000
     24082       194  23SM      C3S            29.9953082378       32.3918188475      -21.5521469552  MEMB      194             0.0000000000
     24083       194  23SM      H3S            30.6913998276       31.5355055196      -21.6728258102  MEMB      194             0.0000000000
     24084       194  23SM      O3             28.6990182023       31.9631038768      -21.9626430360  MEMB      194             0.0000000000
     24085       194  23SM      HO3            28.5781140647       32.3490843602      -22.8426621824  MEMB      194             0.0000000000
     24086       194  23SM      C4S            29.8399826938       32.7052851625      -20.0627211126  MEMB      194             0.0000000000
     24087       194  23SM      H4S            29.3412275553       33.6578469648      -19.8421303984  MEMB      194             0.0000000000
     24088       194  23SM      C5S            30.2329440664       31.8991298995      -19.0363293885  MEMB      194             0.0000000000
     24089       194  23SM      H5S            30.6267588661       30.9159284826      -19.3051725813  MEMB      194             0.0000000000
     24090       194  23SM      C6S            30.0650572748       32.1300366953      -17.5376022870  MEMB      194             0.0000000000
     24091       194  23SM      H6S            29.5648725454       31.2166054588      -17.1688623487  MEMB      194             0.0000000000
     24092       194  23SM      H6T            29.3291303987       32.9578294954      -17.4019908749  MEMB      194             0.0000000000
     24093       194  23SM      C7S            31.0961876511       32.3186216826      -16.3747615274  MEMB      194             0.0000000000
     24094       194  23SM      H7S            30.5332593908       32.7898957902      -15.5339532730  MEMB      194             0.0000000000
     24095       194  23SM      H7T            31.8164278364       33.0658650134      -16.6912646973  MEMB      194             0.0000000000
     24096       194  23SM      C8S            31.7703685412       31.0468798930      -15.7962627995  MEMB      194             0.0000000000
     24097       194  23SM      H8S            32.2930109155       30.5247484153      -16.6194422642  MEMB      194             0.0000000000
     24098       194  23SM      H8T            30.9889745476       30.3432337389      -15.4477910733  MEMB      194             0.0000000000
     24099       194  23SM      C9S            32.8321996539       31.2334879597      -14.6629614720  MEMB      194             0.0000000000
     24100       194  23SM      H9S            33.6995839618       31.7522607886      -15.1063301263  MEMB      194             0.0000000000
     24101       194  23SM      H9T            33.1752179942       30.2093805903      -14.3774035366  MEMB      194             0.0000000000
     24102       194  23SM      C10S           32.3890633248       31.9552542134      -13.3672434908  MEMB      194             0.0000000000
     24103       194  23SM      H10S           31.6963427167       31.2353829849      -12.9140581817  MEMB      194             0.0000000000
     24104       194  23SM      H10T           31.8370459829       32.8850058323      -13.6088717936  MEMB      194             0.0000000000
     24105       194  23SM      C11S           33.3774048896       32.2427345815      -12.2020014628  MEMB      194             0.0000000000
     24106       194  23SM      H11S           34.1746417619       32.9434447541      -12.5177839761  MEMB      194             0.0000000000
     24107       194  23SM      H11T           33.8429225640       31.2788631583      -11.9049480392  MEMB      194             0.0000000000
     24108       194  23SM      C12S           32.6045168614       32.8062379700      -10.9788063882  MEMB      194             0.0000000000
     24109       194  23SM      H12S           31.7119592103       32.1560528624      -10.8884218599  MEMB      194             0.0000000000
     24110       194  23SM      H12T           32.2424782699       33.8341865295      -11.2010884797  MEMB      194             0.0000000000
     24111       194  23SM      C13S           33.2557018990       32.7877973214       -9.5755624043  MEMB      194             0.0000000000
     24112       194  23SM      H13S           34.0035379220       33.6055216427       -9.5085970374  MEMB      194             0.0000000000
     24113       194  23SM      H13T           33.7910457491       31.8290323626       -9.4175270656  MEMB      194             0.0000000000
     24114       194  23SM      C14S           32.1822125241       32.9554051342       -8.4653191396  MEMB      194             0.0000000000
     24115       194  23SM      H14S           31.5832794287       32.0233803906       -8.3656485155  MEMB      194             0.0000000000
     24116       194  23SM      H14T           31.5157223480       33.7932175346       -8.7711036925  MEMB      194             0.0000000000
     24117       194  23SM      C15S           32.6672960925       33.3461493957       -7.0696878977  MEMB      194             0.0000000000
     24118       194  23SM      H15S           31.8471193101       33.8082589819       -6.4730401125  MEMB      194             0.0000000000
     24119       194  23SM      H15T           33.4546728184       34.0893330694       -7.2343776451  MEMB      194             0.0000000000
     24120       194  23SM      C16S           33.1777920763       32.1772260722       -6.2463913569  MEMB      194             0.0000000000
     24121       194  23SM      H16S           33.6050260464       31.4688764586       -6.9625599824  MEMB      194             0.0000000000
     24122       194  23SM      H16T           32.3292860248       31.7037360053       -5.7228770391  MEMB      194             0.0000000000
     24123       194  23SM      C17S           34.3794231565       32.4387902317       -5.3478911247  MEMB      194             0.0000000000
     24124       194  23SM      H17S           34.9651247705       33.2682665924       -5.7978195152  MEMB      194             0.0000000000
     24125       194  23SM      H17T           35.0222321878       31.5254934613       -5.4007176653  MEMB      194             0.0000000000
     24126       194  23SM      C18S           34.0646623114       32.6982149353       -3.8793538691  MEMB      194             0.0000000000
     24127       194  23SM      H18S           34.8661930800       33.3201294431       -3.4323782790  MEMB      194             0.0000000000
     24128       194  23SM      H18T           34.0231022821       31.7319844945       -3.3303945942  MEMB      194             0.0000000000
     24129       194  23SM      H18U           33.0956747927       33.2260862756       -3.7532495535  MEMB      194             0.0000000000
     24130       194  23SM      C1F            32.3714923850       35.2688539382      -22.3740104200  MEMB      194             0.0000000000
     24131       194  23SM      OF             31.8730480428       36.0608586437      -23.1643157714  MEMB      194             0.0000000000
     24132       194  23SM      C2F            33.7316591010       35.4239515184      -21.7768701095  MEMB      194             0.0000000000
     24133       194  23SM      H2F            34.4113622219       34.6633777636      -22.2155043217  MEMB      194             0.0000000000
     24134       194  23SM      H2G            33.5710286677       35.1807471443      -20.7082144673  MEMB      194             0.0000000000
     24135       194  23SM      C3F            34.3785108591       36.8200622181      -21.8248798642  MEMB      194             0.0000000000
     24136       194  23SM      H3F            33.8946876365       37.4457318633      -22.6019932550  MEMB      194             0.0000000000
     24137       194  23SM      H3G            35.4443723057       36.7024973809      -22.1166805640  MEMB      194             0.0000000000
     24138       194  23SM      C4F            34.3304052748       37.5428463769      -20.4680356179  MEMB      194             0.0000000000
     24139       194  23SM      H4F            34.8165240073       38.5356371693      -20.5897002558  MEMB      194             0.0000000000
     24140       194  23SM      H4G            34.9171056791       36.9755335701      -19.7157082929  MEMB      194             0.0000000000
     24141       194  23SM      C5F            32.8934151956       37.7404174943      -19.9682622676  MEMB      194             0.0000000000
     24142       194  23SM      H5F            32.4542082491       36.7696378653      -19.6462844814  MEMB      194             0.0000000000
     24143       194  23SM      H5G            32.2810023067       38.1309021386      -20.8108280998  MEMB      194             0.0000000000
     24144       194  23SM      C6F            32.7594919779       38.7349034489      -18.8153249772  MEMB      194             0.0000000000
     24145       194  23SM      H6F            33.0913791466       39.7340406715      -19.1664820056  MEMB      194             0.0000000000
     24146       194  23SM      H6G            33.4539519739       38.4449580954      -18.0058089337  MEMB      194             0.0000000000
     24147       194  23SM      C7F            31.2983076088       38.8552788626      -18.3406647477  MEMB      194             0.0000000000
     24148       194  23SM      H7F            30.6360507760       38.7403530167      -19.2304690824  MEMB      194             0.0000000000
     24149       194  23SM      H7G            31.1325355730       39.8856913379      -17.9583886843  MEMB      194             0.0000000000
     24150       194  23SM      C8F            30.8805326138       37.8299845959      -17.2614050335  MEMB      194             0.0000000000
     24151       194  23SM      H8F            30.9179554769       36.8157672492      -17.7153930365  MEMB      194             0.0000000000
     24152       194  23SM      H8G            29.8305733606       38.0323384757      -16.9525517707  MEMB      194             0.0000000000
     24153       194  23SM      C9F            31.7958101176       37.8325732432      -16.0225693328  MEMB      194             0.0000000000
     24154       194  23SM      H9F            31.7807797454       38.8548738363      -15.5876100441  MEMB      194             0.0000000000
     24155       194  23SM      H9G            32.8281264968       37.6122315104      -16.3583888515  MEMB      194             0.0000000000
     24156       194  23SM      C10F           31.4876546239       36.7893368197      -14.9285513460  MEMB      194             0.0000000000
     24157       194  23SM      H10F           32.4020151612       36.6507739819      -14.3149231796  MEMB      194             0.0000000000
     24158       194  23SM      H10G           31.2105977718       35.8060274115      -15.3651075790  MEMB      194             0.0000000000
     24159       194  23SM      C11F           30.4386584847       37.3022810167      -13.9639406438  MEMB      194             0.0000000000
     24160       194  23SM      H11F           29.4775088209       37.3309839270      -14.5203223253  MEMB      194             0.0000000000
     24161       194  23SM      H11G           30.7491381370       38.3489189936      -13.7226878846  MEMB      194             0.0000000000
     24162       194  23SM      C12F           30.2817005737       36.5809943430      -12.6130555029  MEMB      194             0.0000000000
     24163       194  23SM      H12F           30.3865609540       37.3500547619      -11.8110442544  MEMB      194             0.0000000000
     24164       194  23SM      H12G           31.1005379236       35.8478722485      -12.4603701345  MEMB      194             0.0000000000
     24165       194  23SM      C13F           28.9230776051       35.8869528948      -12.4123484549  MEMB      194             0.0000000000
     24166       194  23SM      H13F           28.8188997330       35.0663900457      -13.1541492151  MEMB      194             0.0000000000
     24167       194  23SM      H13G           28.0756827667       36.5821716916      -12.5931688621  MEMB      194             0.0000000000
     24168       194  23SM      C14F           28.7262775556       35.3720530334      -10.9799018466  MEMB      194             0.0000000000
     24169       194  23SM      H14F           29.5541693595       34.6851240136      -10.7183947506  MEMB      194             0.0000000000
     24170       194  23SM      H14G           27.7741578394       34.7934167007      -10.9553445335  MEMB      194             0.0000000000
     24171       194  23SM      C15F           28.6566838192       36.5006685736       -9.9339331461  MEMB      194             0.0000000000
     24172       194  23SM      H15F           28.2592728551       37.4036835744      -10.4417918326  MEMB      194             0.0000000000
     24173       194  23SM      H15G           29.6846279590       36.7309022503       -9.5775998917  MEMB      194             0.0000000000
     24174       194  23SM      C16F           27.7683925170       36.1765642342       -8.7231796482  MEMB      194             0.0000000000
     24175       194  23SM      H16F           26.8284423988       35.7083715832       -9.1034234017  MEMB      194             0.0000000000
     24176       194  23SM      H16G           27.4790566556       37.0986333905       -8.1758789441  MEMB      194             0.0000000000
     24177       194  23SM      C17F           28.4817356842       35.2024509771       -7.7803805021  MEMB      194             0.0000000000
     24178       194  23SM      H17F           29.0957178738       34.5786275901       -8.4693294231  MEMB      194             0.0000000000
     24179       194  23SM      H17G           27.7492043831       34.5376858923       -7.2741210308  MEMB      194             0.0000000000
     24180       194  23SM      C18F           29.4362277760       35.8104665114       -6.7321770248  MEMB      194             0.0000000000
     24181       194  23SM      H18F           30.0202660567       36.6397286663       -7.1825106900  MEMB      194             0.0000000000
     24182       194  23SM      H18G           30.1544555129       35.0056990974       -6.4549057148  MEMB      194             0.0000000000
     24183       194  23SM      C19F           28.7729465883       36.2656459665       -5.4174872097  MEMB      194             0.0000000000
     24184       194  23SM      H19F           28.3063305789       35.3783183168       -4.9304248840  MEMB      194             0.0000000000
     24185       194  23SM      H19G           27.9598754438       36.9926923265       -5.6318552964  MEMB      194             0.0000000000
     24186       194  23SM      C20F           29.7540417839       36.9020752919       -4.4082290974  MEMB      194             0.0000000000
     24187       194  23SM      H20F           30.2615849786       37.7756812602       -4.8727231738  MEMB      194             0.0000000000
     24188       194  23SM      H20G           30.5463284903       36.1651961568       -4.1500068586  MEMB      194             0.0000000000
     24189       194  23SM      C21F           29.0439975296       37.3696618958       -3.1209397497  MEMB      194             0.0000000000
     24190       194  23SM      H21F           28.5197948379       36.5063881745       -2.6542060214  MEMB      194             0.0000000000
     24191       194  23SM      H21G           28.2665855394       38.1139932016       -3.4037251321  MEMB      194             0.0000000000
     24192       194  23SM      C22F           29.9765329557       37.9961586651       -2.0700165652  MEMB      194             0.0000000000
     24193       194  23SM      H22F           29.3573096723       38.5113842830       -1.2995738147  MEMB      194             0.0000000000
     24194       194  23SM      H22G           30.5956821173       38.7817722991       -2.5557591224  MEMB      194             0.0000000000
     24195       194  23SM      C23F           30.8746626162       36.9745303513       -1.3642567140  MEMB      194             0.0000000000
     24196       194  23SM      H23F           30.2550203990       36.2270437960       -0.8244007255  MEMB      194             0.0000000000
     24197       194  23SM      H23G           31.5492326964       37.4627197877       -0.6297918994  MEMB      194             0.0000000000
     24198       194  23SM      H23H           31.5023734866       36.4304993070       -2.1029129891  MEMB      194             0.0000000000
     24199       195  CHL1      C3            -36.9367181801       27.3393446926      -17.1951423389  MEMB      195             0.0000000000
     24200       195  CHL1      H3            -38.0289339054       27.3175830411      -16.9677187010  MEMB      195             0.0000000000
     24201       195  CHL1      O3            -36.7526907456       27.5932633428      -18.5723559807  MEMB      195             0.0000000000
     24202       195  CHL1      H3'           -36.7569989359       26.6973874059      -18.9909239358  MEMB      195             0.0000000000
     24203       195  CHL1      C4            -36.2727885125       28.4974639366      -16.4400172979  MEMB      195             0.0000000000
     24204       195  CHL1      H4A           -35.2521186889       28.6851464610      -16.8374162066  MEMB      195             0.0000000000
     24205       195  CHL1      H4B           -36.8459034134       29.4173608678      -16.6946087977  MEMB      195             0.0000000000
     24206       195  CHL1      C5            -36.2603748573       28.2358774598      -14.9508821726  MEMB      195             0.0000000000
     24207       195  CHL1      C6            -36.6938259782       29.1626395802      -14.1076469877  MEMB      195             0.0000000000
     24208       195  CHL1      H6            -36.9280136096       30.1608808380      -14.5049069637  MEMB      195             0.0000000000
     24209       195  CHL1      C7            -36.8047117051       28.9383295207      -12.6378789161  MEMB      195             0.0000000000
     24210       195  CHL1      H7A           -36.6361606081       29.8846375374      -12.0868564620  MEMB      195             0.0000000000
     24211       195  CHL1      H7B           -37.8220709567       28.5698851473      -12.3873485261  MEMB      195             0.0000000000
     24212       195  CHL1      C8            -35.7658509729       27.8982072615      -12.1864881020  MEMB      195             0.0000000000
     24213       195  CHL1      H8            -34.7928743926       28.4038128872      -12.3672590034  MEMB      195             0.0000000000
     24214       195  CHL1      C14           -35.9400579006       27.5274309691      -10.7381261097  MEMB      195             0.0000000000
     24215       195  CHL1      H14           -36.8096458958       26.8225801999      -10.6731665354  MEMB      195             0.0000000000
     24216       195  CHL1      C15           -36.2948713168       28.6506894119       -9.7773029632  MEMB      195             0.0000000000
     24217       195  CHL1      H15A          -35.6060798413       29.5029922682       -9.9457944820  MEMB      195             0.0000000000
     24218       195  CHL1      H15B          -37.3363156800       28.9912594258       -9.8930898957  MEMB      195             0.0000000000
     24219       195  CHL1      C16           -36.0539486362       28.0106687709       -8.4212580958  MEMB      195             0.0000000000
     24220       195  CHL1      H16A          -35.6549215802       28.7907586328       -7.7489465946  MEMB      195             0.0000000000
     24221       195  CHL1      H16B          -36.9989886943       27.6214118904       -7.9883344888  MEMB      195             0.0000000000
     24222       195  CHL1      C17           -35.0681125206       26.8132905368       -8.6395460939  MEMB      195             0.0000000000
     24223       195  CHL1      H17           -35.6450434472       25.8826104180       -8.4302133270  MEMB      195             0.0000000000
     24224       195  CHL1      C13           -34.7424636801       26.7943676137      -10.1510403237  MEMB      195             0.0000000000
     24225       195  CHL1      C18           -33.4595931601       27.6156026833      -10.3894738791  MEMB      195             0.0000000000
     24226       195  CHL1      H18A          -33.2003369203       27.7100201547      -11.4593236212  MEMB      195             0.0000000000
     24227       195  CHL1      H18B          -33.5877062798       28.6303460026       -9.9627909551  MEMB      195             0.0000000000
     24228       195  CHL1      H18C          -32.5659036029       27.1520500312       -9.9442345958  MEMB      195             0.0000000000
     24229       195  CHL1      C12           -34.6903248616       25.4271981341      -10.8586480822  MEMB      195             0.0000000000
     24230       195  CHL1      H12A          -33.7783735681       24.8782817565      -10.5458045339  MEMB      195             0.0000000000
     24231       195  CHL1      H12B          -35.5744556714       24.8256464425      -10.5620180647  MEMB      195             0.0000000000
     24232       195  CHL1      C11           -34.7064249142       25.5999593252      -12.4004674096  MEMB      195             0.0000000000
     24233       195  CHL1      H11A          -33.6848601988       25.9658717798      -12.6384671650  MEMB      195             0.0000000000
     24234       195  CHL1      H11B          -34.8148959650       24.6131346908      -12.8901470102  MEMB      195             0.0000000000
     24235       195  CHL1      C9            -35.7944166479       26.5908481983      -12.9672335028  MEMB      195             0.0000000000
     24236       195  CHL1      H9            -36.7863530122       26.1184103516      -12.7746569278  MEMB      195             0.0000000000
     24237       195  CHL1      C10           -35.7450564878       26.8612484939      -14.4890442041  MEMB      195             0.0000000000
     24238       195  CHL1      C19           -34.2841626289       27.0063320124      -14.8394474601  MEMB      195             0.0000000000
     24239       195  CHL1      H19A          -33.7729678039       27.8253489286      -14.2902731565  MEMB      195             0.0000000000
     24240       195  CHL1      H19B          -33.7091285989       26.0947769894      -14.6666612594  MEMB      195             0.0000000000
     24241       195  CHL1      H19C          -34.2013104188       27.1688331585      -15.9227980224  MEMB      195             0.0000000000
     24242       195  CHL1      C1            -36.3637228288       25.7045938836      -15.3206988048  MEMB      195             0.0000000000
     24243       195  CHL1      H1A           -35.7974838352       24.7736975690      -15.1006576121  MEMB      195             0.0000000000
     24244       195  CHL1      H1B           -37.4128917378       25.5460951633      -14.9897274546  MEMB      195             0.0000000000
     24245       195  CHL1      C2            -36.3328597294       25.9656065603      -16.8414324994  MEMB      195             0.0000000000
     24246       195  CHL1      H2A           -36.8808891477       25.1584167818      -17.3734101640  MEMB      195             0.0000000000
     24247       195  CHL1      H2B           -35.2812780246       25.9422759959      -17.2006539074  MEMB      195             0.0000000000
     24248       195  CHL1      C20           -33.9165342259       26.8726725719       -7.6271574403  MEMB      195             0.0000000000
     24249       195  CHL1      H20           -33.3293773967       27.8071123706       -7.7906216794  MEMB      195             0.0000000000
     24250       195  CHL1      C21           -32.9788167389       25.6547609908       -7.7576772708  MEMB      195             0.0000000000
     24251       195  CHL1      H21A          -32.2473014492       25.6542829153       -6.9255832944  MEMB      195             0.0000000000
     24252       195  CHL1      H21B          -32.4073724264       25.6424301566       -8.7044220316  MEMB      195             0.0000000000
     24253       195  CHL1      H21C          -33.5673115239       24.7215894330       -7.7053325074  MEMB      195             0.0000000000
     24254       195  CHL1      C22           -34.4730838022       26.9377206131       -6.1849868667  MEMB      195             0.0000000000
     24255       195  CHL1      H22A          -35.2797937880       27.6933048977       -6.0893265932  MEMB      195             0.0000000000
     24256       195  CHL1      H22B          -34.9226237104       25.9550179897       -5.9261256904  MEMB      195             0.0000000000
     24257       195  CHL1      C23           -33.4445892110       27.3453979250       -5.1310391317  MEMB      195             0.0000000000
     24258       195  CHL1      H23A          -32.7178801159       26.5196276067       -4.9845483868  MEMB      195             0.0000000000
     24259       195  CHL1      H23B          -32.8843305758       28.2379129335       -5.4907569384  MEMB      195             0.0000000000
     24260       195  CHL1      C24           -34.1636114978       27.6870701421       -3.8180576642  MEMB      195             0.0000000000
     24261       195  CHL1      H24A          -34.7694347278       28.6089297407       -3.9662194746  MEMB      195             0.0000000000
     24262       195  CHL1      H24B          -34.8669887786       26.8553039749       -3.5816821525  MEMB      195             0.0000000000
     24263       195  CHL1      C25           -33.2328574853       27.8748140998       -2.6103848057  MEMB      195             0.0000000000
     24264       195  CHL1      H25           -33.8717965733       28.1437374244       -1.7336180203  MEMB      195             0.0000000000
     24265       195  CHL1      C26           -32.5254463178       26.5540110578       -2.2771413025  MEMB      195             0.0000000000
     24266       195  CHL1      H26A          -31.7516247482       26.3382821882       -3.0413925006  MEMB      195             0.0000000000
     24267       195  CHL1      H26B          -32.0434628672       26.5997391675       -1.2795006661  MEMB      195             0.0000000000
     24268       195  CHL1      H26C          -33.2572726029       25.7172035716       -2.2808298063  MEMB      195             0.0000000000
     24269       195  CHL1      C27           -32.2276824443       29.0148552654       -2.8336070728  MEMB      195             0.0000000000
     24270       195  CHL1      H27A          -31.5244371546       29.0788864996       -1.9793904570  MEMB      195             0.0000000000
     24271       195  CHL1      H27B          -31.6282446000       28.8448654849       -3.7513713852  MEMB      195             0.0000000000
     24272       195  CHL1      H27C          -32.7560056973       29.9871950930       -2.9374663455  MEMB      195             0.0000000000
     24273       196  DOPE      N             -40.1563864652      -28.5130169539      -21.5647560491  MEMB      196             0.0000000000
     24274       196  DOPE      HN1           -40.6230622006      -28.3943528220      -20.6384641307  MEMB      196             0.0000000000
     24275       196  DOPE      HN2           -40.4489955285      -27.7452075400      -22.1949395397  MEMB      196             0.0000000000
     24276       196  DOPE      HN3           -40.3758206950      -29.4633222507      -21.9405758275  MEMB      196             0.0000000000
     24277       196  DOPE      C12           -38.7226173805      -28.3416894202      -21.1745252167  MEMB      196             0.0000000000
     24278       196  DOPE      H12A          -38.0963308872      -28.2842735882      -22.0826421898  MEMB      196             0.0000000000
     24279       196  DOPE      H12B          -38.4529244246      -29.2353636387      -20.5759222456  MEMB      196             0.0000000000
     24280       196  DOPE      C11           -38.5880577200      -27.0587011923      -20.3387680180  MEMB      196             0.0000000000
     24281       196  DOPE      H11A          -38.7024590751      -26.1899551862      -21.0259535455  MEMB      196             0.0000000000
     24282       196  DOPE      H11B          -37.5693225199      -26.9834282859      -19.8857960551  MEMB      196             0.0000000000
     24283       196  DOPE      P             -39.4082645491      -27.6716211511      -17.9285645380  MEMB      196             0.0000000000
     24284       196  DOPE      O13           -38.9321659551      -29.0465786430      -18.2044408630  MEMB      196             0.0000000000
     24285       196  DOPE      O14           -40.6614767620      -27.4725105277      -17.1759581548  MEMB      196             0.0000000000
     24286       196  DOPE      O11           -38.2197097852      -26.8270847326      -17.3088147480  MEMB      196             0.0000000000
     24287       196  DOPE      O12           -39.6200983086      -26.9838530538      -19.3527462252  MEMB      196             0.0000000000
     24288       196  DOPE      C1            -38.0911661954      -25.4093737940      -17.4373210356  MEMB      196             0.0000000000
     24289       196  DOPE      HA            -38.9382773702      -24.9618495412      -18.0106037589  MEMB      196             0.0000000000
     24290       196  DOPE      HB            -37.1516803137      -25.1944297960      -17.9904325482  MEMB      196             0.0000000000
     24291       196  DOPE      C2            -37.9915888430      -24.6347092120      -16.0780715883  MEMB      196             0.0000000000
     24292       196  DOPE      HS            -37.7125084467      -23.5838867780      -16.3339400872  MEMB      196             0.0000000000
     24293       196  DOPE      O21           -37.0473398537      -25.2409629324      -15.1710287667  MEMB      196             0.0000000000
     24294       196  DOPE      C21           -35.9009597454      -24.6228457624      -14.9493118532  MEMB      196             0.0000000000
     24295       196  DOPE      O22           -35.5146615915      -23.6160300539      -15.4984630636  MEMB      196             0.0000000000
     24296       196  DOPE      C22           -35.0845456850      -25.4383809400      -13.9508622846  MEMB      196             0.0000000000
     24297       196  DOPE      H2R           -34.0107468025      -25.2652359837      -14.1643499473  MEMB      196             0.0000000000
     24298       196  DOPE      H2S           -35.3090295122      -26.5027969187      -14.1585931878  MEMB      196             0.0000000000
     24299       196  DOPE      C3            -39.3875037237      -24.5455893872      -15.3881541212  MEMB      196             0.0000000000
     24300       196  DOPE      HX            -40.1198408647      -24.2302715965      -16.1628530665  MEMB      196             0.0000000000
     24301       196  DOPE      HY            -39.3768317791      -23.7464465141      -14.6120073513  MEMB      196             0.0000000000
     24302       196  DOPE      O31           -39.8210720520      -25.8137536789      -14.8678603852  MEMB      196             0.0000000000
     24303       196  DOPE      C31           -39.3868552684      -26.0988140783      -13.6550378432  MEMB      196             0.0000000000
     24304       196  DOPE      O32           -38.8818340977      -25.3066500956      -12.8781361220  MEMB      196             0.0000000000
     24305       196  DOPE      C32           -39.7273248247      -27.5350538773      -13.2940685165  MEMB      196             0.0000000000
     24306       196  DOPE      H2X           -39.8153524672      -27.5814341357      -12.1910304867  MEMB      196             0.0000000000
     24307       196  DOPE      H2Y           -40.7251199486      -27.7451206298      -13.7359203618  MEMB      196             0.0000000000
     24308       196  DOPE      C23           -35.4264148266      -25.1306820761      -12.4727906996  MEMB      196             0.0000000000
     24309       196  DOPE      H3R           -36.5263268175      -25.0368252712      -12.3484572550  MEMB      196             0.0000000000
     24310       196  DOPE      H3S           -34.9527001082      -24.1753335736      -12.1715678598  MEMB      196             0.0000000000
     24311       196  DOPE      C24           -34.9447136654      -26.2516507541      -11.5501655702  MEMB      196             0.0000000000
     24312       196  DOPE      H4R           -33.8733063874      -26.3876431272      -11.7804781584  MEMB      196             0.0000000000
     24313       196  DOPE      H4S           -35.4928022050      -27.1834791348      -11.8042834391  MEMB      196             0.0000000000
     24314       196  DOPE      C25           -35.0925300079      -26.0276052147      -10.0389740875  MEMB      196             0.0000000000
     24315       196  DOPE      H5R           -35.0648183635      -27.0206677870       -9.5310106963  MEMB      196             0.0000000000
     24316       196  DOPE      H5S           -36.0804880017      -25.5654815734       -9.8336656123  MEMB      196             0.0000000000
     24317       196  DOPE      C26           -33.9477741800      -25.2035695951       -9.4422856328  MEMB      196             0.0000000000
     24318       196  DOPE      H6R           -33.7767490095      -24.3112322701      -10.0833769897  MEMB      196             0.0000000000
     24319       196  DOPE      H6S           -33.0049424828      -25.7845509232       -9.4839425229  MEMB      196             0.0000000000
     24320       196  DOPE      C27           -34.1942409780      -24.7863528775       -7.9817393281  MEMB      196             0.0000000000
     24321       196  DOPE      H7R           -35.2635533685      -24.6356106628       -7.7422214464  MEMB      196             0.0000000000
     24322       196  DOPE      H7S           -33.7022248644      -23.8210469241       -7.8313045778  MEMB      196             0.0000000000
     24323       196  DOPE      C28           -33.3462092757      -25.4865478445       -6.9293883723  MEMB      196             0.0000000000
     24324       196  DOPE      H8R           -32.7919893440      -24.7225693823       -6.3345987343  MEMB      196             0.0000000000
     24325       196  DOPE      H8S           -32.5671822892      -26.0340251866       -7.4740292031  MEMB      196             0.0000000000
     24326       196  DOPE      C29           -34.0791258593      -26.3670983850       -5.9868446773  MEMB      196             0.0000000000
     24327       196  DOPE      H9R           -35.1779725154      -26.4008441354       -6.0683005432  MEMB      196             0.0000000000
     24328       196  DOPE      C210          -33.4296135277      -27.0639712419       -5.0500139677  MEMB      196             0.0000000000
     24329       196  DOPE      H10R          -34.0424790449      -27.7292254964       -4.4299541215  MEMB      196             0.0000000000
     24330       196  DOPE      C211          -31.9253456202      -27.0678080484       -4.8114354330  MEMB      196             0.0000000000
     24331       196  DOPE      H11R          -31.4231446650      -26.2236468084       -5.3371474734  MEMB      196             0.0000000000
     24332       196  DOPE      H11S          -31.4875077011      -27.9993886220       -5.2330948222  MEMB      196             0.0000000000
     24333       196  DOPE      C212          -31.4858638746      -26.9880895486       -3.3275511220  MEMB      196             0.0000000000
     24334       196  DOPE      H12R          -31.7851506396      -25.9988433926       -2.9261277602  MEMB      196             0.0000000000
     24335       196  DOPE      H12S          -30.3790901874      -27.0592682282       -3.2619266127  MEMB      196             0.0000000000
     24336       196  DOPE      C213          -32.1338253904      -28.0947024278       -2.4873351060  MEMB      196             0.0000000000
     24337       196  DOPE      H13R          -31.7577928584      -29.0908845634       -2.7629528640  MEMB      196             0.0000000000
     24338       196  DOPE      H13S          -33.1746954351      -28.0891009549       -2.8106378400  MEMB      196             0.0000000000
     24339       196  DOPE      C214          -32.2283931011      -27.9075846646       -0.9699816162  MEMB      196             0.0000000000
     24340       196  DOPE      H14R          -32.3049847658      -26.8254315382       -0.7321912698  MEMB      196             0.0000000000
     24341       196  DOPE      H14S          -31.3140826058      -28.3029757822       -0.4748211756  MEMB      196             0.0000000000
     24342       196  DOPE      C215          -33.4599836018      -28.6423424574       -0.3940625866  MEMB      196             0.0000000000
     24343       196  DOPE      H15R          -33.5020725222      -28.5015541086        0.6956351212  MEMB      196             0.0000000000
     24344       196  DOPE      H15S          -33.2615299880      -29.7126531127       -0.4560524835  MEMB      196             0.0000000000
     24345       196  DOPE      C216          -34.8350471977      -28.2683274314       -1.0048356504  MEMB      196             0.0000000000
     24346       196  DOPE      H16R          -34.8867017901      -28.3386964712       -2.1078696390  MEMB      196             0.0000000000
     24347       196  DOPE      H16S          -35.0407254717      -27.2179003773       -0.7451094635  MEMB      196             0.0000000000
     24348       196  DOPE      C217          -35.9762597290      -29.1679031845       -0.5520761428  MEMB      196             0.0000000000
     24349       196  DOPE      H17R          -35.8738399351      -29.3345606681        0.5357710772  MEMB      196             0.0000000000
     24350       196  DOPE      H17S          -35.8380098331      -30.1162383834       -1.1031285385  MEMB      196             0.0000000000
     24351       196  DOPE      C218          -37.3941850720      -28.7113862345       -0.8683495389  MEMB      196             0.0000000000
     24352       196  DOPE      H18R          -38.1295173412      -29.4192613081       -0.4345435429  MEMB      196             0.0000000000
     24353       196  DOPE      H18S          -37.5623290321      -28.6493234950       -1.9638704998  MEMB      196             0.0000000000
     24354       196  DOPE      H18T          -37.5904790763      -27.7195651418       -0.4125372491  MEMB      196             0.0000000000
     24355       196  DOPE      C33           -38.7263244967      -28.5819259806      -13.8450885773  MEMB      196             0.0000000000
     24356       196  DOPE      H3X           -38.3467875641      -28.2744679683      -14.8472802156  MEMB      196             0.0000000000
     24357       196  DOPE      H3Y           -39.3040517661      -29.5198355051      -14.0117385989  MEMB      196             0.0000000000
     24358       196  DOPE      C34           -37.5414204533      -28.9485198427      -12.9326992345  MEMB      196             0.0000000000
     24359       196  DOPE      H4X           -37.1282669534      -29.9062406098      -13.3201445925  MEMB      196             0.0000000000
     24360       196  DOPE      H4Y           -36.7543421411      -28.1768844878      -13.0498235265  MEMB      196             0.0000000000
     24361       196  DOPE      C35           -37.8643394227      -29.1739610539      -11.4467644105  MEMB      196             0.0000000000
     24362       196  DOPE      H5X           -38.1193924341      -28.1923226277      -10.9892973812  MEMB      196             0.0000000000
     24363       196  DOPE      H5Y           -36.9538735613      -29.5419778310      -10.9187505068  MEMB      196             0.0000000000
     24364       196  DOPE      C36           -39.0228056767      -30.1651489298      -11.2342256057  MEMB      196             0.0000000000
     24365       196  DOPE      H6X           -38.7977109967      -31.1344111808      -11.7122934371  MEMB      196             0.0000000000
     24366       196  DOPE      H6Y           -39.9327806629      -29.7897112072      -11.7481591289  MEMB      196             0.0000000000
     24367       196  DOPE      C37           -39.3697390066      -30.4071387809       -9.7628833298  MEMB      196             0.0000000000
     24368       196  DOPE      H7X           -40.0026177596      -31.3210246024       -9.6992308983  MEMB      196             0.0000000000
     24369       196  DOPE      H7Y           -38.4464957079      -30.5937908638       -9.1682231465  MEMB      196             0.0000000000
     24370       196  DOPE      C38           -40.1359146281      -29.2040388199       -9.2104076204  MEMB      196             0.0000000000
     24371       196  DOPE      H8X           -40.9277305666      -28.9216000564       -9.9395495256  MEMB      196             0.0000000000
     24372       196  DOPE      H8Y           -39.4026243777      -28.3671763324       -9.1852237590  MEMB      196             0.0000000000
     24373       196  DOPE      C39           -40.7578516455      -29.4462644344       -7.8630320003  MEMB      196             0.0000000000
     24374       196  DOPE      H9X           -41.1169619529      -30.4674823604       -7.6605725119  MEMB      196             0.0000000000
     24375       196  DOPE      C310          -40.9484759733      -28.4814902272       -6.9535548316  MEMB      196             0.0000000000
     24376       196  DOPE      H10X          -41.4024560067      -28.7297167700       -5.9819339222  MEMB      196             0.0000000000
     24377       196  DOPE      C311          -40.5747691540      -27.0368417404       -7.1475544846  MEMB      196             0.0000000000
     24378       196  DOPE      H11X          -40.0708798744      -26.8368863382       -8.1158966564  MEMB      196             0.0000000000
     24379       196  DOPE      H11Y          -41.4836527326      -26.4013142765       -7.1470780746  MEMB      196             0.0000000000
     24380       196  DOPE      C312          -39.6607016064      -26.5293862128       -6.0394135496  MEMB      196             0.0000000000
     24381       196  DOPE      H12X          -39.2210453024      -25.5606385678       -6.3720974987  MEMB      196             0.0000000000
     24382       196  DOPE      H12Y          -38.8090228276      -27.2189964269       -5.8543944603  MEMB      196             0.0000000000
     24383       196  DOPE      C313          -40.4472444785      -26.2750785918       -4.7583349002  MEMB      196             0.0000000000
     24384       196  DOPE      H13X          -41.4564741238      -25.8789877731       -5.0081707401  MEMB      196             0.0000000000
     24385       196  DOPE      H13Y          -40.6054161943      -27.2297750226       -4.2105165771  MEMB      196             0.0000000000
     24386       196  DOPE      C314          -39.7416107166      -25.2502557607       -3.8803589435  MEMB      196             0.0000000000
     24387       196  DOPE      H14X          -40.3394432389      -25.1583346907       -2.9575192607  MEMB      196             0.0000000000
     24388       196  DOPE      H14Y          -39.7468000020      -24.2403986400       -4.3317457112  MEMB      196             0.0000000000
     24389       196  DOPE      C315          -38.2879144076      -25.5750330801       -3.6373294609  MEMB      196             0.0000000000
     24390       196  DOPE      H15X          -37.7060779520      -25.4835195076       -4.5822096588  MEMB      196             0.0000000000
     24391       196  DOPE      H15Y          -38.2365468211      -26.6373312134       -3.3059443202  MEMB      196             0.0000000000
     24392       196  DOPE      C316          -37.6674736156      -24.6621572657       -2.5879094636  MEMB      196             0.0000000000
     24393       196  DOPE      H16X          -38.4006385174      -24.4080971690       -1.7988470664  MEMB      196             0.0000000000
     24394       196  DOPE      H16Y          -37.3187501280      -23.7045946075       -3.0317182744  MEMB      196             0.0000000000
     24395       196  DOPE      C317          -36.5273994715      -25.4076766194       -1.9379928245  MEMB      196             0.0000000000
     24396       196  DOPE      H17X          -36.2297340259      -24.8936191310       -1.0104506161  MEMB      196             0.0000000000
     24397       196  DOPE      H17Y          -36.8875475269      -26.4119504512       -1.6746071496  MEMB      196             0.0000000000
     24398       196  DOPE      C318          -35.3551819462      -25.5471285212       -2.8784762989  MEMB      196             0.0000000000
     24399       196  DOPE      H18X          -35.0929355208      -24.5350273779       -3.1940081012  MEMB      196             0.0000000000
     24400       196  DOPE      H18Y          -34.4653497224      -26.0050561425       -2.4030921458  MEMB      196             0.0000000000
     24401       196  DOPE      H18Z          -35.6376060407      -26.1268923313       -3.7794607137  MEMB      196             0.0000000000
     24402       197  23SM      N             -33.0064116248       33.3541632963      -27.4533399318  MEMB      197             0.0000000000
     24403       197  23SM      C15           -33.3522570432       31.9316885944      -27.1509535650  MEMB      197             0.0000000000
     24404       197  23SM      H15A          -32.7549586775       31.6166312541      -26.2987640665  MEMB      197             0.0000000000
     24405       197  23SM      H15B          -33.1427731414       31.2890004042      -27.9919541465  MEMB      197             0.0000000000
     24406       197  23SM      H15C          -34.3972179729       31.8182602588      -26.8692856923  MEMB      197             0.0000000000
     24407       197  23SM      C14           -31.5599005623       33.4826138463      -27.7901992349  MEMB      197             0.0000000000
     24408       197  23SM      H14A          -31.2953026444       34.5288519394      -27.9156192254  MEMB      197             0.0000000000
     24409       197  23SM      H14B          -31.3420589835       32.9462174715      -28.6982538625  MEMB      197             0.0000000000
     24410       197  23SM      H14C          -30.9590034777       33.1107264677      -26.9623517456  MEMB      197             0.0000000000
     24411       197  23SM      C13           -33.7884365526       33.8641168846      -28.6063113030  MEMB      197             0.0000000000
     24412       197  23SM      H13A          -33.5328391456       34.9138406012      -28.7330090294  MEMB      197             0.0000000000
     24413       197  23SM      H13B          -34.8597255507       33.7827784947      -28.4300759300  MEMB      197             0.0000000000
     24414       197  23SM      H13C          -33.5258412613       33.3625079859      -29.5399534449  MEMB      197             0.0000000000
     24415       197  23SM      C12           -33.3286355541       34.2220085609      -26.2591572086  MEMB      197             0.0000000000
     24416       197  23SM      H12A          -34.3953047859       34.1875604610      -26.0775385147  MEMB      197             0.0000000000
     24417       197  23SM      H12B          -33.0947458242       35.2646175877      -26.4894937745  MEMB      197             0.0000000000
     24418       197  23SM      C11           -32.5887560246       33.9356639683      -24.9469207991  MEMB      197             0.0000000000
     24419       197  23SM      H11A          -32.6841283095       32.8674480704      -24.6633398983  MEMB      197             0.0000000000
     24420       197  23SM      H11B          -33.1010357524       34.5377676872      -24.1578053425  MEMB      197             0.0000000000
     24421       197  23SM      P             -30.8519952462       35.8217228602      -24.9816926897  MEMB      197             0.0000000000
     24422       197  23SM      O13           -29.4005779515       35.9680058183      -25.2877821406  MEMB      197             0.0000000000
     24423       197  23SM      O14           -31.8500321537       36.5508349748      -25.7856397725  MEMB      197             0.0000000000
     24424       197  23SM      O11           -31.0366856400       36.2193071995      -23.4634766613  MEMB      197             0.0000000000
     24425       197  23SM      O12           -31.2046055939       34.2710608402      -25.0380314333  MEMB      197             0.0000000000
     24426       197  23SM      C1S           -30.3267852993       35.4250480209      -22.4954265674  MEMB      197             0.0000000000
     24427       197  23SM      H1S           -29.3118600286       35.8426661811      -22.3521496201  MEMB      197             0.0000000000
     24428       197  23SM      H1T           -30.1684155729       34.3712891973      -22.8307606826  MEMB      197             0.0000000000
     24429       197  23SM      NF            -32.4572969361       34.9295427915      -21.3967268456  MEMB      197             0.0000000000
     24430       197  23SM      HNF           -33.1369715042       35.6561735423      -21.5062433162  MEMB      197             0.0000000000
     24431       197  23SM      C2S           -31.0865951891       35.3339114779      -21.1279533449  MEMB      197             0.0000000000
     24432       197  23SM      H2S           -30.6030558601       34.5503735763      -20.5112630232  MEMB      197             0.0000000000
     24433       197  23SM      C3S           -30.9716477891       36.7038013346      -20.3794312001  MEMB      197             0.0000000000
     24434       197  23SM      H3S           -31.5670875804       37.4706785221      -20.9103337935  MEMB      197             0.0000000000
     24435       197  23SM      O3            -29.6203310187       37.1773268016      -20.3867478392  MEMB      197             0.0000000000
     24436       197  23SM      HO3           -29.4403686640       37.1421283489      -21.3330972749  MEMB      197             0.0000000000
     24437       197  23SM      C4S           -31.4843308002       36.6167235815      -18.9402907757  MEMB      197             0.0000000000
     24438       197  23SM      H4S           -32.5616952407       36.7983993332      -18.8588135116  MEMB      197             0.0000000000
     24439       197  23SM      C5S           -30.7929557212       36.3803428533      -17.7993115169  MEMB      197             0.0000000000
     24440       197  23SM      H5S           -29.7186173981       36.1475282373      -17.8789481880  MEMB      197             0.0000000000
     24441       197  23SM      C6S           -31.3288882892       36.3163324033      -16.3812658997  MEMB      197             0.0000000000
     24442       197  23SM      H6S           -31.1252602220       37.3033860236      -15.9233388067  MEMB      197             0.0000000000
     24443       197  23SM      H6T           -30.7388453003       35.5955885959      -15.7714341353  MEMB      197             0.0000000000
     24444       197  23SM      C7S           -32.8199043271       36.0885242979      -16.0542398198  MEMB      197             0.0000000000
     24445       197  23SM      H7S           -33.1859467985       35.1089872490      -16.4205818883  MEMB      197             0.0000000000
     24446       197  23SM      H7T           -33.4113102595       36.9055481809      -16.5275539965  MEMB      197             0.0000000000
     24447       197  23SM      C8S           -33.0404626180       36.1651246786      -14.5359924011  MEMB      197             0.0000000000
     24448       197  23SM      H8S           -34.0865528597       36.4817518801      -14.3289826681  MEMB      197             0.0000000000
     24449       197  23SM      H8T           -32.3530346762       36.9272695589      -14.1105972763  MEMB      197             0.0000000000
     24450       197  23SM      C9S           -32.8000728757       34.8459054397      -13.8007096626  MEMB      197             0.0000000000
     24451       197  23SM      H9S           -31.7090717789       34.6314138672      -13.7804500229  MEMB      197             0.0000000000
     24452       197  23SM      H9T           -33.3103303560       34.0365384313      -14.3702122490  MEMB      197             0.0000000000
     24453       197  23SM      C10S          -33.3442235574       34.8859983038      -12.3654892200  MEMB      197             0.0000000000
     24454       197  23SM      H10S          -33.4258558910       33.8492748984      -11.9890780448  MEMB      197             0.0000000000
     24455       197  23SM      H10T          -34.3787007508       35.2891471895      -12.3712904605  MEMB      197             0.0000000000
     24456       197  23SM      C11S          -32.4560767980       35.6802275713      -11.3888255286  MEMB      197             0.0000000000
     24457       197  23SM      H11S          -32.4030653227       36.7459945855      -11.6962893255  MEMB      197             0.0000000000
     24458       197  23SM      H11T          -31.4177639876       35.2797483147      -11.4412845166  MEMB      197             0.0000000000
     24459       197  23SM      C12S          -32.9592708225       35.5953405671       -9.9341373329  MEMB      197             0.0000000000
     24460       197  23SM      H12S          -33.0855533522       34.5324656245       -9.6592370809  MEMB      197             0.0000000000
     24461       197  23SM      H12T          -33.9526314171       36.0924856119       -9.8714479050  MEMB      197             0.0000000000
     24462       197  23SM      C13S          -31.9857142930       36.2007586726       -8.9129779190  MEMB      197             0.0000000000
     24463       197  23SM      H13S          -31.6045035549       37.1382734016       -9.3558076100  MEMB      197             0.0000000000
     24464       197  23SM      H13T          -31.1302784246       35.5009858596       -8.7842404262  MEMB      197             0.0000000000
     24465       197  23SM      C14S          -32.6120187654       36.5392661498       -7.5503922680  MEMB      197             0.0000000000
     24466       197  23SM      H14S          -33.1045247794       35.6424098890       -7.1404881254  MEMB      197             0.0000000000
     24467       197  23SM      H14T          -33.4194479312       37.2824475195       -7.7061241713  MEMB      197             0.0000000000
     24468       197  23SM      C15S          -31.6120689560       37.0790268294       -6.5099410773  MEMB      197             0.0000000000
     24469       197  23SM      H15S          -31.2276401513       38.0700402988       -6.8195619622  MEMB      197             0.0000000000
     24470       197  23SM      H15T          -30.7343967712       36.3960032481       -6.4566656796  MEMB      197             0.0000000000
     24471       197  23SM      C16S          -32.2111464061       37.1868237584       -5.0973280912  MEMB      197             0.0000000000
     24472       197  23SM      H16S          -32.3885000011       36.1508235103       -4.7737205531  MEMB      197             0.0000000000
     24473       197  23SM      H16T          -33.1611969877       37.7546752461       -5.0701996300  MEMB      197             0.0000000000
     24474       197  23SM      C17S          -31.2339768220       37.7011784797       -4.0490440750  MEMB      197             0.0000000000
     24475       197  23SM      H17S          -31.0482605955       38.7822084146       -4.1619209207  MEMB      197             0.0000000000
     24476       197  23SM      H17T          -30.3020914826       37.1961338086       -4.3274372317  MEMB      197             0.0000000000
     24477       197  23SM      C18S          -31.6049099341       37.3820897481       -2.5965463400  MEMB      197             0.0000000000
     24478       197  23SM      H18S          -30.7186716969       37.4119677177       -1.9287210078  MEMB      197             0.0000000000
     24479       197  23SM      H18T          -32.0679606631       36.3907179128       -2.4623361484  MEMB      197             0.0000000000
     24480       197  23SM      H18U          -32.3580733886       38.1108975791       -2.2346617560  MEMB      197             0.0000000000
     24481       197  23SM      C1F           -32.7553827468       33.6933759787      -21.8109429752  MEMB      197             0.0000000000
     24482       197  23SM      OF            -31.8852892620       32.9591202845      -22.2389697175  MEMB      197             0.0000000000
     24483       197  23SM      C2F           -34.1777007598       33.2302751323      -21.8118023306  MEMB      197             0.0000000000
     24484       197  23SM      H2F           -34.2014863829       32.1216051186      -21.7491591918  MEMB      197             0.0000000000
     24485       197  23SM      H2G           -34.6377147118       33.5124787142      -22.7799025941  MEMB      197             0.0000000000
     24486       197  23SM      C3F           -34.9625365707       33.8258119514      -20.6416908889  MEMB      197             0.0000000000
     24487       197  23SM      H3F           -36.0541553889       33.7089261534      -20.8195113297  MEMB      197             0.0000000000
     24488       197  23SM      H3G           -34.7760820857       34.9139941088      -20.5737867498  MEMB      197             0.0000000000
     24489       197  23SM      C4F           -34.6155381137       33.2288157759      -19.2786735144  MEMB      197             0.0000000000
     24490       197  23SM      H4F           -33.5169053280       33.1248610868      -19.1251984684  MEMB      197             0.0000000000
     24491       197  23SM      H4G           -35.0631385321       32.2107572055      -19.2042650695  MEMB      197             0.0000000000
     24492       197  23SM      C5F           -35.2000293680       34.1477544777      -18.2106434859  MEMB      197             0.0000000000
     24493       197  23SM      H5F           -36.1434951794       34.5597893305      -18.6305064494  MEMB      197             0.0000000000
     24494       197  23SM      H5G           -34.5344138481       35.0147970995      -18.0391052893  MEMB      197             0.0000000000
     24495       197  23SM      C6F           -35.5606288447       33.4318938332      -16.9153212943  MEMB      197             0.0000000000
     24496       197  23SM      H6F           -34.6373372091       33.1563198202      -16.3594617886  MEMB      197             0.0000000000
     24497       197  23SM      H6G           -36.1160854013       32.4938934195      -17.1590013383  MEMB      197             0.0000000000
     24498       197  23SM      C7F           -36.4843655738       34.2937374918      -16.0457300446  MEMB      197             0.0000000000
     24499       197  23SM      H7F           -37.4329252588       34.4968647409      -16.5867098713  MEMB      197             0.0000000000
     24500       197  23SM      H7G           -35.9852884167       35.2617530465      -15.8276089873  MEMB      197             0.0000000000
     24501       197  23SM      C8F           -36.8112258610       33.5681007157      -14.7512276678  MEMB      197             0.0000000000
     24502       197  23SM      H8F           -35.8832640787       33.0163438080      -14.4873820379  MEMB      197             0.0000000000
     24503       197  23SM      H8G           -37.6059428128       32.8065496197      -14.9175589380  MEMB      197             0.0000000000
     24504       197  23SM      C9F           -37.2100078997       34.5102048131      -13.6100402777  MEMB      197             0.0000000000
     24505       197  23SM      H9F           -38.0794257221       35.1193991253      -13.9272863422  MEMB      197             0.0000000000
     24506       197  23SM      H9G           -36.3699040858       35.1982163850      -13.3740924066  MEMB      197             0.0000000000
     24507       197  23SM      C10F          -37.5713243267       33.7217941711      -12.3604740727  MEMB      197             0.0000000000
     24508       197  23SM      H10F          -38.3958892879       33.0184309172      -12.6168104484  MEMB      197             0.0000000000
     24509       197  23SM      H10G          -37.9513009011       34.3803551607      -11.5511705763  MEMB      197             0.0000000000
     24510       197  23SM      C11F          -36.3794173193       32.9200313875      -11.8510557964  MEMB      197             0.0000000000
     24511       197  23SM      H11F          -35.5531087827       32.8016668179      -12.5754162149  MEMB      197             0.0000000000
     24512       197  23SM      H11G          -36.7435963994       31.8916640693      -11.6486299437  MEMB      197             0.0000000000
     24513       197  23SM      C12F          -35.8207373894       33.4169445091      -10.5348203835  MEMB      197             0.0000000000
     24514       197  23SM      H12F          -36.6944082525       33.4597593166       -9.8426367516  MEMB      197             0.0000000000
     24515       197  23SM      H12G          -35.3927591105       34.4376895612      -10.5334058341  MEMB      197             0.0000000000
     24516       197  23SM      C13F          -34.8450252523       32.3622164607      -10.0247654120  MEMB      197             0.0000000000
     24517       197  23SM      H13F          -33.8100364672       32.7372070575       -9.9527370289  MEMB      197             0.0000000000
     24518       197  23SM      H13G          -34.8151156573       31.4957513709      -10.7216571488  MEMB      197             0.0000000000
     24519       197  23SM      C14F          -35.3860939077       31.9331228439       -8.6815094454  MEMB      197             0.0000000000
     24520       197  23SM      H14F          -36.3602669386       31.4155416846       -8.8328070558  MEMB      197             0.0000000000
     24521       197  23SM      H14G          -35.5746409567       32.8891195660       -8.1581237921  MEMB      197             0.0000000000
     24522       197  23SM      C15F          -34.4576772967       31.1239572429       -7.8090888413  MEMB      197             0.0000000000
     24523       197  23SM      H15F          -34.0845489423       30.2427880312       -8.3771396138  MEMB      197             0.0000000000
     24524       197  23SM      H15G          -35.0342801757       30.7591776006       -6.9293102290  MEMB      197             0.0000000000
     24525       197  23SM      C16F          -33.2763776948       31.9427214182       -7.3093964824  MEMB      197             0.0000000000
     24526       197  23SM      H16F          -32.6516581967       32.2360690542       -8.1820933774  MEMB      197             0.0000000000
     24527       197  23SM      H16G          -32.7079591236       31.2746432792       -6.6441718143  MEMB      197             0.0000000000
     24528       197  23SM      C17F          -33.5795242309       33.1987014173       -6.4974133304  MEMB      197             0.0000000000
     24529       197  23SM      H17F          -34.1805760793       33.9005487127       -7.1088909936  MEMB      197             0.0000000000
     24530       197  23SM      H17G          -32.6075948578       33.7145630259       -6.3060231709  MEMB      197             0.0000000000
     24531       197  23SM      C18F          -34.2712660281       32.9749041273       -5.1418779958  MEMB      197             0.0000000000
     24532       197  23SM      H18F          -33.5640891058       32.4491897777       -4.4613430529  MEMB      197             0.0000000000
     24533       197  23SM      H18G          -35.1774726919       32.3436618909       -5.2485021483  MEMB      197             0.0000000000
     24534       197  23SM      C19F          -34.6286589875       34.3563991377       -4.5753721935  MEMB      197             0.0000000000
     24535       197  23SM      H19F          -35.4923712268       34.7883152193       -5.1098652681  MEMB      197             0.0000000000
     24536       197  23SM      H19G          -33.8017037052       34.9984791927       -4.8888435791  MEMB      197             0.0000000000
     24537       197  23SM      C20F          -34.7713869696       34.5076740270       -3.0534673298  MEMB      197             0.0000000000
     24538       197  23SM      H20F          -33.8820377731       34.0688018258       -2.5530172195  MEMB      197             0.0000000000
     24539       197  23SM      H20G          -35.6719953858       33.9598468134       -2.7057414855  MEMB      197             0.0000000000
     24540       197  23SM      C21F          -34.8930976148       35.9926703983       -2.6514367248  MEMB      197             0.0000000000
     24541       197  23SM      H21F          -35.7437370701       36.4280348689       -3.2210659347  MEMB      197             0.0000000000
     24542       197  23SM      H21G          -34.0004322648       36.5452912890       -2.9903553988  MEMB      197             0.0000000000
     24543       197  23SM      C22F          -35.1319146063       36.2501393561       -1.1518236603  MEMB      197             0.0000000000
     24544       197  23SM      H22F          -35.7882299870       35.4449302297       -0.7559487634  MEMB      197             0.0000000000
     24545       197  23SM      H22G          -35.6930067719       37.2103276188       -1.0609373509  MEMB      197             0.0000000000
     24546       197  23SM      C23F          -33.8734181198       36.3816103488       -0.2832089682  MEMB      197             0.0000000000
     24547       197  23SM      H23F          -34.1356175670       36.5842235236        0.7764001868  MEMB      197             0.0000000000
     24548       197  23SM      H23G          -33.2658431525       37.2429763980       -0.6172910565  MEMB      197             0.0000000000
     24549       197  23SM      H23H          -33.2535316580       35.4606269948       -0.3303544611  MEMB      197             0.0000000000
     24550       198  CHL1      C3             33.6719990282      -33.8162952920      -17.2435200308  MEMB      198             0.0000000000
     24551       198  CHL1      H3             34.7619192474      -33.7432475295      -17.0435988446  MEMB      198             0.0000000000
     24552       198  CHL1      O3             33.4806087510      -33.7651249606      -18.6568843456  MEMB      198             0.0000000000
     24553       198  CHL1      H3'            33.9392155827      -34.5416644105      -19.0476050098  MEMB      198             0.0000000000
     24554       198  CHL1      C4             33.0832026291      -35.1264152739      -16.6839590583  MEMB      198             0.0000000000
     24555       198  CHL1      H4A            32.0322762812      -35.1877131486      -17.0390752878  MEMB      198             0.0000000000
     24556       198  CHL1      H4B            33.6138780725      -35.9780951859      -17.1627896202  MEMB      198             0.0000000000
     24557       198  CHL1      C5             33.0920565797      -35.2343537710      -15.1683922440  MEMB      198             0.0000000000
     24558       198  CHL1      C6             33.6210878832      -36.3009010194      -14.5473897866  MEMB      198             0.0000000000
     24559       198  CHL1      H6             34.0328098313      -37.1253675377      -15.1446983857  MEMB      198             0.0000000000
     24560       198  CHL1      C7             33.5466442256      -36.5245034630      -13.0680411466  MEMB      198             0.0000000000
     24561       198  CHL1      H7A            33.1867195919      -37.5565202745      -12.8552664439  MEMB      198             0.0000000000
     24562       198  CHL1      H7B            34.5602553890      -36.4303508895      -12.6215135809  MEMB      198             0.0000000000
     24563       198  CHL1      C8             32.5895198007      -35.5276970327      -12.3571832139  MEMB      198             0.0000000000
     24564       198  CHL1      H8             31.5506680016      -35.8735765638      -12.5456448575  MEMB      198             0.0000000000
     24565       198  CHL1      C14            32.8700627923      -35.5578394851      -10.8747485745  MEMB      198             0.0000000000
     24566       198  CHL1      H14            33.9477110768      -35.2592753044      -10.7880104721  MEMB      198             0.0000000000
     24567       198  CHL1      C15            32.7527000321      -36.9259031078      -10.2015293712  MEMB      198             0.0000000000
     24568       198  CHL1      H15A           31.8317374798      -37.4612109292      -10.5173285585  MEMB      198             0.0000000000
     24569       198  CHL1      H15B           33.6330495850      -37.4779242603      -10.5435344573  MEMB      198             0.0000000000
     24570       198  CHL1      C16            32.7282603707      -36.6157085384       -8.6964756267  MEMB      198             0.0000000000
     24571       198  CHL1      H16A           31.7797765498      -37.0349924375       -8.3042660217  MEMB      198             0.0000000000
     24572       198  CHL1      H16B           33.5591900297      -37.0809471486       -8.1320201898  MEMB      198             0.0000000000
     24573       198  CHL1      C17            32.7876394354      -35.0533587932       -8.6330805403  MEMB      198             0.0000000000
     24574       198  CHL1      H17            33.8724813386      -34.8149253001       -8.7625637239  MEMB      198             0.0000000000
     24575       198  CHL1      C13            32.1020412695      -34.6132064951       -9.9754784729  MEMB      198             0.0000000000
     24576       198  CHL1      C18            30.5922076474      -34.9942837122      -10.1047942650  MEMB      198             0.0000000000
     24577       198  CHL1      H18A           30.2721822333      -35.0880779952      -11.1578148372  MEMB      198             0.0000000000
     24578       198  CHL1      H18B           30.3278449742      -35.9397552104       -9.5952615346  MEMB      198             0.0000000000
     24579       198  CHL1      H18C           29.9669059430      -34.1817672266       -9.6867508410  MEMB      198             0.0000000000
     24580       198  CHL1      C12            32.3308634619      -33.1789685919      -10.4664328383  MEMB      198             0.0000000000
     24581       198  CHL1      H12A           31.6863498892      -32.4904895858       -9.8797152848  MEMB      198             0.0000000000
     24582       198  CHL1      H12B           33.3904582854      -32.9053727101      -10.2852842443  MEMB      198             0.0000000000
     24583       198  CHL1      C11            32.0142203535      -33.0547517984      -11.9792556174  MEMB      198             0.0000000000
     24584       198  CHL1      H11A           30.9184740913      -33.1866420722      -12.0977054929  MEMB      198             0.0000000000
     24585       198  CHL1      H11B           32.2588987722      -32.0238115125      -12.3039615105  MEMB      198             0.0000000000
     24586       198  CHL1      C9             32.7693138691      -34.0995476652      -12.8730140117  MEMB      198             0.0000000000
     24587       198  CHL1      H9             33.8539855122      -33.8667191798      -12.7323781222  MEMB      198             0.0000000000
     24588       198  CHL1      C10            32.4965842957      -34.0269650442      -14.4066518011  MEMB      198             0.0000000000
     24589       198  CHL1      C19            30.9610373973      -34.0336507667      -14.6166941924  MEMB      198             0.0000000000
     24590       198  CHL1      H19A           30.4843499794      -34.8781702297      -14.0817204109  MEMB      198             0.0000000000
     24591       198  CHL1      H19B           30.5125262718      -33.0879535357      -14.2532525455  MEMB      198             0.0000000000
     24592       198  CHL1      H19C           30.6791839437      -34.1297287003      -15.6840953317  MEMB      198             0.0000000000
     24593       198  CHL1      C1             33.1231935734      -32.7330018521      -15.0079474541  MEMB      198             0.0000000000
     24594       198  CHL1      H1A            32.6245065126      -31.8580123816      -14.5410070702  MEMB      198             0.0000000000
     24595       198  CHL1      H1B            34.1993791455      -32.6980913291      -14.7231923411  MEMB      198             0.0000000000
     24596       198  CHL1      C2             33.0093029871      -32.6156912718      -16.5477228671  MEMB      198             0.0000000000
     24597       198  CHL1      H2A            33.4897469594      -31.6758955749      -16.8911924355  MEMB      198             0.0000000000
     24598       198  CHL1      H2B            31.9376333519      -32.5837741363      -16.8362539384  MEMB      198             0.0000000000
     24599       198  CHL1      C20            32.4741806486      -34.4239025177       -7.2582092124  MEMB      198             0.0000000000
     24600       198  CHL1      H20            33.0738917544      -34.9698876867       -6.4936659251  MEMB      198             0.0000000000
     24601       198  CHL1      C21            30.9952118576      -34.7526243094       -7.0518450474  MEMB      198             0.0000000000
     24602       198  CHL1      H21A           30.7699176864      -35.8343930285       -7.0971168617  MEMB      198             0.0000000000
     24603       198  CHL1      H21B           30.3500846773      -34.2101779441       -7.7602466941  MEMB      198             0.0000000000
     24604       198  CHL1      H21C           30.6754699405      -34.4207188026       -6.0901263396  MEMB      198             0.0000000000
     24605       198  CHL1      C22            32.8822863855      -32.9066321998       -7.0795036007  MEMB      198             0.0000000000
     24606       198  CHL1      H22A           33.7173890347      -32.7469851191       -7.7973734981  MEMB      198             0.0000000000
     24607       198  CHL1      H22B           32.0757479853      -32.2968711182       -7.5308614595  MEMB      198             0.0000000000
     24608       198  CHL1      C23            33.4132369007      -32.2494592616       -5.7115110411  MEMB      198             0.0000000000
     24609       198  CHL1      H23A           34.4739444361      -31.9920269778       -5.9360280993  MEMB      198             0.0000000000
     24610       198  CHL1      H23B           32.8977772526      -31.2688294210       -5.6032723064  MEMB      198             0.0000000000
     24611       198  CHL1      C24            33.4570636122      -33.0241776259       -4.3266215506  MEMB      198             0.0000000000
     24612       198  CHL1      H24A           32.4724168074      -33.5352082739       -4.2639765945  MEMB      198             0.0000000000
     24613       198  CHL1      H24B           34.2264076533      -33.8067218709       -4.4471941282  MEMB      198             0.0000000000
     24614       198  CHL1      C25            33.6199109182      -32.3237991367       -2.8745915569  MEMB      198             0.0000000000
     24615       198  CHL1      H25            33.4660037499      -33.1149558001       -2.0934313490  MEMB      198             0.0000000000
     24616       198  CHL1      C26            32.5024309959      -31.3127415503       -2.6813314323  MEMB      198             0.0000000000
     24617       198  CHL1      H26A           31.5532682630      -31.7727673133       -2.3442722117  MEMB      198             0.0000000000
     24618       198  CHL1      H26B           32.7268223009      -30.4510862677       -2.0271869341  MEMB      198             0.0000000000
     24619       198  CHL1      H26C           32.4041499430      -30.8903006944       -3.6916459400  MEMB      198             0.0000000000
     24620       198  CHL1      C27            34.8906311476      -31.5338865012       -2.4510745595  MEMB      198             0.0000000000
     24621       198  CHL1      H27A           35.3269813082      -31.0167060582       -3.3223502431  MEMB      198             0.0000000000
     24622       198  CHL1      H27B           34.5934289166      -30.7275822821       -1.7357107503  MEMB      198             0.0000000000
     24623       198  CHL1      H27C           35.6544040053      -32.0938902423       -1.8696492452  MEMB      198             0.0000000000
     24624       199  23SM      N             -35.5274904548      -33.5483775286      -27.7957663443  MEMB      199             0.0000000000
     24625       199  23SM      C15           -34.5821992689      -34.3401989375      -28.6233107897  MEMB      199             0.0000000000
     24626       199  23SM      H15A          -33.6790598840      -33.7715952312      -28.8045820311  MEMB      199             0.0000000000
     24627       199  23SM      H15B          -35.0343316348      -34.6199373960      -29.5642113275  MEMB      199             0.0000000000
     24628       199  23SM      H15C          -34.3690477672      -35.2464950575      -28.0602581334  MEMB      199             0.0000000000
     24629       199  23SM      C14           -35.8799236336      -32.2790761677      -28.4935447420  MEMB      199             0.0000000000
     24630       199  23SM      H14A          -35.0023225938      -31.7146695500      -28.7679846320  MEMB      199             0.0000000000
     24631       199  23SM      H14B          -36.5267933664      -31.6711510411      -27.8536881195  MEMB      199             0.0000000000
     24632       199  23SM      H14C          -36.4495742743      -32.4825316633      -29.3921863170  MEMB      199             0.0000000000
     24633       199  23SM      C13           -36.8116659997      -34.3036376989      -27.6083643549  MEMB      199             0.0000000000
     24634       199  23SM      H13A          -36.6790462882      -35.1668273765      -26.9581600951  MEMB      199             0.0000000000
     24635       199  23SM      H13B          -37.1465757777      -34.6870039384      -28.5665467837  MEMB      199             0.0000000000
     24636       199  23SM      H13C          -37.5705954935      -33.6678992688      -27.1602482042  MEMB      199             0.0000000000
     24637       199  23SM      C12           -34.8960596478      -33.3068352208      -26.4335385740  MEMB      199             0.0000000000
     24638       199  23SM      H12A          -35.6750165787      -32.9280004933      -25.7712075098  MEMB      199             0.0000000000
     24639       199  23SM      H12B          -34.1322298170      -32.5448253337      -26.5332702778  MEMB      199             0.0000000000
     24640       199  23SM      C11           -34.2418738587      -34.5365434986      -25.7406816355  MEMB      199             0.0000000000
     24641       199  23SM      H11A          -33.9193200922      -34.2460495221      -24.7121994656  MEMB      199             0.0000000000
     24642       199  23SM      H11B          -33.3050959897      -34.7911933744      -26.2837846496  MEMB      199             0.0000000000
     24643       199  23SM      P             -36.1147335250      -35.9692277839      -24.5823865021  MEMB      199             0.0000000000
     24644       199  23SM      O13           -36.8745530557      -34.7361945653      -24.3519696742  MEMB      199             0.0000000000
     24645       199  23SM      O14           -36.9083773846      -37.1766276755      -24.9010641335  MEMB      199             0.0000000000
     24646       199  23SM      O11           -35.2647715461      -36.2338321377      -23.2940446363  MEMB      199             0.0000000000
     24647       199  23SM      O12           -35.0827630440      -35.6914494143      -25.7448310669  MEMB      199             0.0000000000
     24648       199  23SM      C1S           -34.0678828991      -36.9748720248      -23.1820752969  MEMB      199             0.0000000000
     24649       199  23SM      H1S           -33.2387107474      -36.4222848743      -23.6615740572  MEMB      199             0.0000000000
     24650       199  23SM      H1T           -34.1194696141      -37.9797455994      -23.6574909251  MEMB      199             0.0000000000
     24651       199  23SM      NF            -34.9196890547      -37.8066247459      -21.0313378981  MEMB      199             0.0000000000
     24652       199  23SM      HNF           -35.4539285062      -37.1788623242      -20.4757834863  MEMB      199             0.0000000000
     24653       199  23SM      C2S           -33.7935690465      -37.1613414792      -21.6746323725  MEMB      199             0.0000000000
     24654       199  23SM      H2S           -32.9039354097      -37.8255373510      -21.5650935005  MEMB      199             0.0000000000
     24655       199  23SM      C3S           -33.4884266593      -35.8314441032      -20.9662845198  MEMB      199             0.0000000000
     24656       199  23SM      H3S           -34.3655839804      -35.1500223173      -20.9989079227  MEMB      199             0.0000000000
     24657       199  23SM      O3            -32.4159918601      -35.1185038236      -21.5666858732  MEMB      199             0.0000000000
     24658       199  23SM      HO3           -32.2168885389      -35.6202106587      -22.3640983149  MEMB      199             0.0000000000
     24659       199  23SM      C4S           -33.2090740456      -36.2535615678      -19.5527602128  MEMB      199             0.0000000000
     24660       199  23SM      H4S           -32.2133432640      -36.6967722436      -19.4116587193  MEMB      199             0.0000000000
     24661       199  23SM      C5S           -34.0500158063      -36.1895899913      -18.5045192573  MEMB      199             0.0000000000
     24662       199  23SM      H5S           -35.0455662452      -35.7240142308      -18.6014073553  MEMB      199             0.0000000000
     24663       199  23SM      C6S           -33.6766325089      -36.6716152186      -17.1341953874  MEMB      199             0.0000000000
     24664       199  23SM      H6S           -33.1106920621      -35.8948358451      -16.5886430112  MEMB      199             0.0000000000
     24665       199  23SM      H6T           -32.9694356147      -37.5353840547      -17.1936501861  MEMB      199             0.0000000000
     24666       199  23SM      C7S           -34.9296750462      -37.1083379625      -16.3497597000  MEMB      199             0.0000000000
     24667       199  23SM      H7S           -35.0755045886      -38.1978339504      -16.5263999129  MEMB      199             0.0000000000
     24668       199  23SM      H7T           -35.8385571202      -36.5574938544      -16.6777607505  MEMB      199             0.0000000000
     24669       199  23SM      C8S           -34.8118750510      -36.8766335638      -14.8415920421  MEMB      199             0.0000000000
     24670       199  23SM      H8S           -35.5651809032      -37.4990217549      -14.3082500994  MEMB      199             0.0000000000
     24671       199  23SM      H8T           -35.0369189939      -35.8147160389      -14.5970317180  MEMB      199             0.0000000000
     24672       199  23SM      C9S           -33.4242778592      -37.2061502939      -14.3066507246  MEMB      199             0.0000000000
     24673       199  23SM      H9S           -32.8029466108      -36.2860744786      -14.2351344216  MEMB      199             0.0000000000
     24674       199  23SM      H9T           -32.8914646260      -37.9039980907      -14.9860813835  MEMB      199             0.0000000000
     24675       199  23SM      C10S          -33.4889318174      -37.8817228340      -12.9542490974  MEMB      199             0.0000000000
     24676       199  23SM      H10S          -32.5060177845      -38.3563333515      -12.7827526223  MEMB      199             0.0000000000
     24677       199  23SM      H10T          -34.2478571774      -38.6887342013      -12.8776887698  MEMB      199             0.0000000000
     24678       199  23SM      C11S          -33.6752211927      -36.9000147137      -11.8431525068  MEMB      199             0.0000000000
     24679       199  23SM      H11S          -34.7639754932      -36.7396581450      -11.7039678201  MEMB      199             0.0000000000
     24680       199  23SM      H11T          -33.1899565922      -35.9186439357      -12.0573454252  MEMB      199             0.0000000000
     24681       199  23SM      C12S          -33.0711858809      -37.4623236452      -10.5820629038  MEMB      199             0.0000000000
     24682       199  23SM      H12S          -31.9627902038      -37.5308785838      -10.6470209776  MEMB      199             0.0000000000
     24683       199  23SM      H12T          -33.4687701010      -38.4799618982      -10.3689964606  MEMB      199             0.0000000000
     24684       199  23SM      C13S          -33.4882980309      -36.5001462649       -9.5257569110  MEMB      199             0.0000000000
     24685       199  23SM      H13S          -34.5981435407      -36.4913922659       -9.5501582120  MEMB      199             0.0000000000
     24686       199  23SM      H13T          -33.0941196718      -35.4852055791       -9.7675329348  MEMB      199             0.0000000000
     24687       199  23SM      C14S          -33.0506170483      -36.9376602506       -8.1767545780  MEMB      199             0.0000000000
     24688       199  23SM      H14S          -32.1940350523      -37.6316059683       -8.2591519137  MEMB      199             0.0000000000
     24689       199  23SM      H14T          -33.8963843020      -37.4917638225       -7.7070398160  MEMB      199             0.0000000000
     24690       199  23SM      C15S          -32.6802878492      -35.7466267843       -7.3376510987  MEMB      199             0.0000000000
     24691       199  23SM      H15S          -33.5196374883      -35.0170427663       -7.3856133651  MEMB      199             0.0000000000
     24692       199  23SM      H15T          -31.7636602253      -35.2354247075       -7.7080453505  MEMB      199             0.0000000000
     24693       199  23SM      C16S          -32.5280740211      -36.2734120913       -5.9365229884  MEMB      199             0.0000000000
     24694       199  23SM      H16S          -31.5193620901      -36.7239666524       -5.8196845774  MEMB      199             0.0000000000
     24695       199  23SM      H16T          -33.2827102507      -37.0758062533       -5.7689105024  MEMB      199             0.0000000000
     24696       199  23SM      C17S          -32.8147309105      -35.2077507769       -4.9189780274  MEMB      199             0.0000000000
     24697       199  23SM      H17S          -33.6611124707      -34.5909575831       -5.2707818958  MEMB      199             0.0000000000
     24698       199  23SM      H17T          -31.9415022545      -34.5216115105       -4.8775636847  MEMB      199             0.0000000000
     24699       199  23SM      C18S          -33.0837701495      -35.8099212639       -3.5483998305  MEMB      199             0.0000000000
     24700       199  23SM      H18S          -34.1375516175      -36.0903674810       -3.4076730227  MEMB      199             0.0000000000
     24701       199  23SM      H18T          -32.7578400695      -35.1211031935       -2.7395561720  MEMB      199             0.0000000000
     24702       199  23SM      H18U          -32.5535035303      -36.7698126143       -3.4667254937  MEMB      199             0.0000000000
     24703       199  23SM      C1F           -35.2182496690      -39.0724489577      -21.1843649656  MEMB      199             0.0000000000
     24704       199  23SM      OF            -34.4854592723      -39.8253582268      -21.8087649733  MEMB      199             0.0000000000
     24705       199  23SM      C2F           -36.4574069566      -39.5415659415      -20.4816713755  MEMB      199             0.0000000000
     24706       199  23SM      H2F           -36.4728022325      -39.0889771121      -19.4708115460  MEMB      199             0.0000000000
     24707       199  23SM      H2G           -36.3933410873      -40.6399849559      -20.3507799875  MEMB      199             0.0000000000
     24708       199  23SM      C3F           -37.7639120287      -39.2348278028      -21.2606367056  MEMB      199             0.0000000000
     24709       199  23SM      H3F           -38.6231528127      -39.6761223535      -20.7059945264  MEMB      199             0.0000000000
     24710       199  23SM      H3G           -37.7281397637      -39.7658570454      -22.2354501781  MEMB      199             0.0000000000
     24711       199  23SM      C4F           -38.0676932560      -37.7432344225      -21.5057030817  MEMB      199             0.0000000000
     24712       199  23SM      H4F           -38.8928028298      -37.6618549078      -22.2527099020  MEMB      199             0.0000000000
     24713       199  23SM      H4G           -37.2061184249      -37.2135965583      -21.9584025801  MEMB      199             0.0000000000
     24714       199  23SM      C5F           -38.4865564108      -37.0478855679      -20.2132902667  MEMB      199             0.0000000000
     24715       199  23SM      H5F           -37.6934702674      -37.2309261530      -19.4580347686  MEMB      199             0.0000000000
     24716       199  23SM      H5G           -39.4500698450      -37.5100359399      -19.8981215540  MEMB      199             0.0000000000
     24717       199  23SM      C6F           -38.6499312757      -35.5233904078      -20.2823404810  MEMB      199             0.0000000000
     24718       199  23SM      H6F           -39.3462844979      -35.2623227741      -21.1108422121  MEMB      199             0.0000000000
     24719       199  23SM      H6G           -37.6639814329      -35.0745328854      -20.5414366753  MEMB      199             0.0000000000
     24720       199  23SM      C7F           -39.1691995741      -34.8921416764      -18.9639873638  MEMB      199             0.0000000000
     24721       199  23SM      H7F           -40.2396383392      -34.6154994785      -19.0669588625  MEMB      199             0.0000000000
     24722       199  23SM      H7G           -38.6409775356      -33.9305469951      -18.7912146484  MEMB      199             0.0000000000
     24723       199  23SM      C8F           -39.0169215706      -35.7946495696      -17.7305299639  MEMB      199             0.0000000000
     24724       199  23SM      H8F           -37.9374240988      -35.8942667542      -17.4839989545  MEMB      199             0.0000000000
     24725       199  23SM      H8G           -39.4555143580      -36.7810611598      -17.9606600320  MEMB      199             0.0000000000
     24726       199  23SM      C9F           -39.8102064054      -35.3567746810      -16.5017353729  MEMB      199             0.0000000000
     24727       199  23SM      H9F           -39.6600998951      -36.0946705178      -15.6806618187  MEMB      199             0.0000000000
     24728       199  23SM      H9G           -40.8889686623      -35.3771728505      -16.7466917432  MEMB      199             0.0000000000
     24729       199  23SM      C10F          -39.3885783133      -33.9880419287      -15.9796541929  MEMB      199             0.0000000000
     24730       199  23SM      H10F          -40.0414709860      -33.7343749393      -15.1139948922  MEMB      199             0.0000000000
     24731       199  23SM      H10G          -39.5377323510      -33.1979428287      -16.7489626075  MEMB      199             0.0000000000
     24732       199  23SM      C11F          -37.9234040482      -34.0268966565      -15.5389479725  MEMB      199             0.0000000000
     24733       199  23SM      H11F          -37.2435533726      -33.9454243619      -16.4166576605  MEMB      199             0.0000000000
     24734       199  23SM      H11G          -37.7296561105      -35.0195109028      -15.0704538899  MEMB      199             0.0000000000
     24735       199  23SM      C12F          -37.5711753090      -32.9577440858      -14.5072306551  MEMB      199             0.0000000000
     24736       199  23SM      H12F          -38.4921530338      -32.4599507197      -14.1304120672  MEMB      199             0.0000000000
     24737       199  23SM      H12G          -36.9392738687      -32.1769624546      -14.9857893451  MEMB      199             0.0000000000
     24738       199  23SM      C13F          -36.8165154466      -33.5637999026      -13.3229929239  MEMB      199             0.0000000000
     24739       199  23SM      H13F          -35.9656661409      -34.1667030197      -13.7001641242  MEMB      199             0.0000000000
     24740       199  23SM      H13G          -37.4862724178      -34.2654438683      -12.7802660740  MEMB      199             0.0000000000
     24741       199  23SM      C14F          -36.2694409647      -32.4819444351      -12.3902279296  MEMB      199             0.0000000000
     24742       199  23SM      H14F          -37.1197776040      -32.0180960165      -11.8646020112  MEMB      199             0.0000000000
     24743       199  23SM      H14G          -35.7533054507      -31.7016970962      -12.9896059153  MEMB      199             0.0000000000
     24744       199  23SM      C15F          -35.3235398667      -33.0019298581      -11.3143095378  MEMB      199             0.0000000000
     24745       199  23SM      H15F          -35.0992896833      -32.1726084565      -10.6082102513  MEMB      199             0.0000000000
     24746       199  23SM      H15G          -34.3646551567      -33.3227091226      -11.7805913802  MEMB      199             0.0000000000
     24747       199  23SM      C16F          -35.9518253174      -34.1686478401      -10.5579936688  MEMB      199             0.0000000000
     24748       199  23SM      H16F          -35.6305711275      -35.0971695229      -11.0689434055  MEMB      199             0.0000000000
     24749       199  23SM      H16G          -37.0599745011      -34.1409965641      -10.6265155233  MEMB      199             0.0000000000
     24750       199  23SM      C17F          -35.5660576827      -34.2116862357       -9.0862243872  MEMB      199             0.0000000000
     24751       199  23SM      H17F          -34.4750442564      -34.0355923945       -8.9779040953  MEMB      199             0.0000000000
     24752       199  23SM      H17G          -35.8101610190      -35.2304507521       -8.7029376858  MEMB      199             0.0000000000
     24753       199  23SM      C18F          -36.3369011080      -33.2719023659       -8.1725296070  MEMB      199             0.0000000000
     24754       199  23SM      H18F          -37.4247859898      -33.3941807271       -8.3754663555  MEMB      199             0.0000000000
     24755       199  23SM      H18G          -36.0634374105      -32.2122673543       -8.3598561448  MEMB      199             0.0000000000
     24756       199  23SM      C19F          -36.0463332640      -33.6860091423       -6.7291422560  MEMB      199             0.0000000000
     24757       199  23SM      H19F          -34.9881632011      -33.4422884965       -6.4859233388  MEMB      199             0.0000000000
     24758       199  23SM      H19G          -36.1438503087      -34.7959772217       -6.6658106172  MEMB      199             0.0000000000
     24759       199  23SM      C20F          -37.0111285824      -33.0633320526       -5.7151265553  MEMB      199             0.0000000000
     24760       199  23SM      H20F          -37.9902341014      -32.8853577444       -6.2066895359  MEMB      199             0.0000000000
     24761       199  23SM      H20G          -36.5867934572      -32.0790201568       -5.4122266062  MEMB      199             0.0000000000
     24762       199  23SM      C21F          -37.2409225840      -33.9445510648       -4.4742709799  MEMB      199             0.0000000000
     24763       199  23SM      H21F          -37.6726204297      -34.9268136655       -4.7721128533  MEMB      199             0.0000000000
     24764       199  23SM      H21G          -37.9334934101      -33.4399655874       -3.7696204896  MEMB      199             0.0000000000
     24765       199  23SM      C22F          -35.9171064000      -34.1984424264       -3.7757015425  MEMB      199             0.0000000000
     24766       199  23SM      H22F          -35.3757001500      -33.2344065386       -3.8311821416  MEMB      199             0.0000000000
     24767       199  23SM      H22G          -35.4037532159      -34.9457158156       -4.4121599304  MEMB      199             0.0000000000
     24768       199  23SM      C23F          -35.9368832992      -34.6573397975       -2.3166930881  MEMB      199             0.0000000000
     24769       199  23SM      H23F          -34.9036973276      -34.6442489218       -1.8972371373  MEMB      199             0.0000000000
     24770       199  23SM      H23G          -36.3254371034      -35.6909364077       -2.2208168389  MEMB      199             0.0000000000
     24771       199  23SM      H23H          -36.5420669848      -33.9603473280       -1.7039626749  MEMB      199             0.0000000000
     24772       200  DOPE      N              38.5278303733       37.7765378876      -17.6269443998  MEMB      200             0.0000000000
     24773       200  DOPE      HN1            38.7193683906       37.1033078134      -18.4082737577  MEMB      200             0.0000000000
     24774       200  DOPE      HN2            38.6018061572       38.7470827740      -17.9868298790  MEMB      200             0.0000000000
     24775       200  DOPE      HN3            39.2069232244       37.5889056650      -16.8646042701  MEMB      200             0.0000000000
     24776       200  DOPE      C12            37.1084057432       37.4479041284      -17.3003281445  MEMB      200             0.0000000000
     24777       200  DOPE      H12A           36.4429580894       38.0388614837      -17.9699085588  MEMB      200             0.0000000000
     24778       200  DOPE      H12B           36.8886467007       37.6972131110      -16.2448931785  MEMB      200             0.0000000000
     24779       200  DOPE      C11            36.9324799397       35.9726678185      -17.6115242070  MEMB      200             0.0000000000
     24780       200  DOPE      H11A           35.8289584488       35.8126018072      -17.6150713607  MEMB      200             0.0000000000
     24781       200  DOPE      H11B           37.3674355698       35.3636204197      -16.7789664920  MEMB      200             0.0000000000
     24782       200  DOPE      P              37.5238627791       34.0650700770      -19.2316560494  MEMB      200             0.0000000000
     24783       200  DOPE      O13            38.6741687122       33.4139051636      -18.6176911976  MEMB      200             0.0000000000
     24784       200  DOPE      O14            37.3107826542       33.8062126373      -20.6648030719  MEMB      200             0.0000000000
     24785       200  DOPE      O11            36.2444307467       33.6775367925      -18.4926795658  MEMB      200             0.0000000000
     24786       200  DOPE      O12            37.5311677220       35.6331828074      -18.8844536073  MEMB      200             0.0000000000
     24787       200  DOPE      C1             35.0125224822       33.8634281847      -19.1615951571  MEMB      200             0.0000000000
     24788       200  DOPE      HA             35.0258616654       33.5636588085      -20.2390264558  MEMB      200             0.0000000000
     24789       200  DOPE      HB             34.7004849093       34.9228677846      -19.1025511613  MEMB      200             0.0000000000
     24790       200  DOPE      C2             34.0697001246       32.9416222526      -18.4326377458  MEMB      200             0.0000000000
     24791       200  DOPE      HS             33.0256079436       33.1028536275      -18.7948179112  MEMB      200             0.0000000000
     24792       200  DOPE      O21            34.1414680341       33.1464295004      -17.0155379493  MEMB      200             0.0000000000
     24793       200  DOPE      C21            33.7854527658       34.3700893846      -16.6591964221  MEMB      200             0.0000000000
     24794       200  DOPE      O22            33.2235222108       35.1896479849      -17.3668219565  MEMB      200             0.0000000000
     24795       200  DOPE      C22            34.0146535699       34.5251876027      -15.1814281634  MEMB      200             0.0000000000
     24796       200  DOPE      H2R            34.5455340209       33.6424827282      -14.7681582138  MEMB      200             0.0000000000
     24797       200  DOPE      H2S            33.0113845479       34.5771854530      -14.7077039214  MEMB      200             0.0000000000
     24798       200  DOPE      C3             34.5137291542       31.4984476797      -18.7830806154  MEMB      200             0.0000000000
     24799       200  DOPE      HX             34.5046967418       31.4652836912      -19.8915744357  MEMB      200             0.0000000000
     24800       200  DOPE      HY             33.7082696719       30.8629533329      -18.3854689197  MEMB      200             0.0000000000
     24801       200  DOPE      O31            35.8450396038       31.1124053311      -18.3386797230  MEMB      200             0.0000000000
     24802       200  DOPE      C31            35.8311969803       30.5528562716      -17.1229670189  MEMB      200             0.0000000000
     24803       200  DOPE      O32            34.8710988182       29.9524535776      -16.6769171069  MEMB      200             0.0000000000
     24804       200  DOPE      C32            37.1086376446       30.7677389584      -16.3261972744  MEMB      200             0.0000000000
     24805       200  DOPE      H2X            37.9253754263       30.1929806567      -16.8191218238  MEMB      200             0.0000000000
     24806       200  DOPE      H2Y            37.3827693572       31.8387340464      -16.3601974775  MEMB      200             0.0000000000
     24807       200  DOPE      C23            34.8024394717       35.7873607122      -14.8451230385  MEMB      200             0.0000000000
     24808       200  DOPE      H3R            34.3218021455       36.7058329065      -15.2512647448  MEMB      200             0.0000000000
     24809       200  DOPE      H3S            35.8353469808       35.7362014721      -15.2468085393  MEMB      200             0.0000000000
     24810       200  DOPE      C24            34.8354252937       35.8884376389      -13.3355409053  MEMB      200             0.0000000000
     24811       200  DOPE      H4R            34.1225432619       35.1658218289      -12.8754810103  MEMB      200             0.0000000000
     24812       200  DOPE      H4S            34.4452547758       36.8867394018      -13.0602038498  MEMB      200             0.0000000000
     24813       200  DOPE      C25            36.2317462198       35.5916145678      -12.8019481302  MEMB      200             0.0000000000
     24814       200  DOPE      H5R            36.9888556317       36.1598647416      -13.3812362252  MEMB      200             0.0000000000
     24815       200  DOPE      H5S            36.4368475903       34.5034071713      -12.9350836159  MEMB      200             0.0000000000
     24816       200  DOPE      C26            36.3270833691       35.9757832278      -11.3342142700  MEMB      200             0.0000000000
     24817       200  DOPE      H6R            37.2741225631       35.6177886374      -10.8807466928  MEMB      200             0.0000000000
     24818       200  DOPE      H6S            35.5024926029       35.4220580067      -10.8351743278  MEMB      200             0.0000000000
     24819       200  DOPE      C27            36.2174760680       37.5015485495      -11.1565997206  MEMB      200             0.0000000000
     24820       200  DOPE      H7R            35.5206150803       37.9514522287      -11.8922142912  MEMB      200             0.0000000000
     24821       200  DOPE      H7S            37.2062113301       37.9524285099      -11.3843376352  MEMB      200             0.0000000000
     24822       200  DOPE      C28            35.7130763102       37.9595461210       -9.7848594249  MEMB      200             0.0000000000
     24823       200  DOPE      H8R            35.5384218416       39.0591512505       -9.8444448105  MEMB      200             0.0000000000
     24824       200  DOPE      H8S            36.5198708146       37.8319214246       -9.0335905623  MEMB      200             0.0000000000
     24825       200  DOPE      C29            34.4346431526       37.2400477847       -9.4126985945  MEMB      200             0.0000000000
     24826       200  DOPE      H9R            33.5618934739       37.4294810181      -10.0544533641  MEMB      200             0.0000000000
     24827       200  DOPE      C210           34.3099647555       36.2705747004       -8.5105019765  MEMB      200             0.0000000000
     24828       200  DOPE      H10R           33.3208349396       35.8145352341       -8.3594100338  MEMB      200             0.0000000000
     24829       200  DOPE      C211           35.4351079512       35.7092984146       -7.6976630479  MEMB      200             0.0000000000
     24830       200  DOPE      H11R           36.4058080617       35.9557760354       -8.1719458005  MEMB      200             0.0000000000
     24831       200  DOPE      H11S           35.3570008106       34.6027594332       -7.7090452954  MEMB      200             0.0000000000
     24832       200  DOPE      C212           35.5146869437       36.1502003048       -6.2322697405  MEMB      200             0.0000000000
     24833       200  DOPE      H12R           35.9353569105       37.1770218550       -6.1767354580  MEMB      200             0.0000000000
     24834       200  DOPE      H12S           36.2320464067       35.4666244557       -5.7254251147  MEMB      200             0.0000000000
     24835       200  DOPE      C213           34.1809352581       36.0824808589       -5.4837929688  MEMB      200             0.0000000000
     24836       200  DOPE      H13R           33.7321251058       35.0853644203       -5.6046399821  MEMB      200             0.0000000000
     24837       200  DOPE      H13S           33.4726070957       36.8260492147       -5.9055410367  MEMB      200             0.0000000000
     24838       200  DOPE      C214           34.3369773479       36.2261839190       -3.9715100322  MEMB      200             0.0000000000
     24839       200  DOPE      H14R           35.2003682538       35.6001110765       -3.6524533477  MEMB      200             0.0000000000
     24840       200  DOPE      H14S           33.4269971742       35.8189529636       -3.4751102574  MEMB      200             0.0000000000
     24841       200  DOPE      C215           34.5567535036       37.6774963955       -3.5665074042  MEMB      200             0.0000000000
     24842       200  DOPE      H15R           35.3555906804       38.0947230755       -4.2186925788  MEMB      200             0.0000000000
     24843       200  DOPE      H15S           34.9169445919       37.7216198977       -2.5159488665  MEMB      200             0.0000000000
     24844       200  DOPE      C216           33.2937828411       38.5363208746       -3.7092548919  MEMB      200             0.0000000000
     24845       200  DOPE      H16R           32.7061008637       38.4407387516       -2.7721194113  MEMB      200             0.0000000000
     24846       200  DOPE      H16S           32.6547785222       38.1629138522       -4.5385218392  MEMB      200             0.0000000000
     24847       200  DOPE      C217           33.6080344811       40.0119411808       -3.9745561558  MEMB      200             0.0000000000
     24848       200  DOPE      H17R           32.6477216330       40.5737846394       -4.0440782243  MEMB      200             0.0000000000
     24849       200  DOPE      H17S           34.1214534296       40.0999586803       -4.9587603801  MEMB      200             0.0000000000
     24850       200  DOPE      C218           34.4932355226       40.6282053886       -2.8934848300  MEMB      200             0.0000000000
     24851       200  DOPE      H18R           34.5677227522       41.7242353943       -2.9980019409  MEMB      200             0.0000000000
     24852       200  DOPE      H18S           35.5179996370       40.2051454589       -2.9071632386  MEMB      200             0.0000000000
     24853       200  DOPE      H18T           34.0572555542       40.4091705308       -1.9096158297  MEMB      200             0.0000000000
     24854       200  DOPE      C33            36.9942852087       30.2545376312      -14.8564792934  MEMB      200             0.0000000000
     24855       200  DOPE      H3X            38.0238543804       30.3438123520      -14.4917632927  MEMB      200             0.0000000000
     24856       200  DOPE      H3Y            36.7222320739       29.1801241133      -14.7891031276  MEMB      200             0.0000000000
     24857       200  DOPE      C34            36.2830567324       31.0617852028      -13.7507282428  MEMB      200             0.0000000000
     24858       200  DOPE      H4X            36.4464712237       32.1470699465      -13.9206710569  MEMB      200             0.0000000000
     24859       200  DOPE      H4Y            35.1992809892       30.8543751827      -13.7494153635  MEMB      200             0.0000000000
     24860       200  DOPE      C35            36.8960647677       30.6469092584      -12.3945092039  MEMB      200             0.0000000000
     24861       200  DOPE      H5X            37.9909743364       30.8409210705      -12.4731590948  MEMB      200             0.0000000000
     24862       200  DOPE      H5Y            36.7803076574       29.5495367733      -12.2484165878  MEMB      200             0.0000000000
     24863       200  DOPE      C36            36.4427725439       31.3694406729      -11.1139468400  MEMB      200             0.0000000000
     24864       200  DOPE      H6X            35.5529964367       30.8497523877      -10.6985611605  MEMB      200             0.0000000000
     24865       200  DOPE      H6Y            36.1759703706       32.4238896320      -11.3410037433  MEMB      200             0.0000000000
     24866       200  DOPE      C37            37.6077518052       31.3089854562      -10.1112021573  MEMB      200             0.0000000000
     24867       200  DOPE      H7X            37.9459800195       30.2545488518      -10.1038323170  MEMB      200             0.0000000000
     24868       200  DOPE      H7Y            38.4352714390       31.9137598619      -10.5246942617  MEMB      200             0.0000000000
     24869       200  DOPE      C38            37.3660682461       31.7407197101       -8.6566247006  MEMB      200             0.0000000000
     24870       200  DOPE      H8X            38.1494415950       31.2577427371       -8.0274011225  MEMB      200             0.0000000000
     24871       200  DOPE      H8Y            36.3785440281       31.3586039631       -8.3148558592  MEMB      200             0.0000000000
     24872       200  DOPE      C39            37.4525742348       33.2415309587       -8.5753450559  MEMB      200             0.0000000000
     24873       200  DOPE      H9X            36.7317376414       33.7478569355       -9.2344275587  MEMB      200             0.0000000000
     24874       200  DOPE      C310           38.2485479555       34.0180304111       -7.8131655132  MEMB      200             0.0000000000
     24875       200  DOPE      H10X           38.1815170371       35.1063853042       -7.9443176127  MEMB      200             0.0000000000
     24876       200  DOPE      C311           39.2948341360       33.6468563394       -6.8045615771  MEMB      200             0.0000000000
     24877       200  DOPE      H11X           39.6893692790       32.6220700148       -6.9520521088  MEMB      200             0.0000000000
     24878       200  DOPE      H11Y           40.1522736192       34.3538012689       -6.9068378788  MEMB      200             0.0000000000
     24879       200  DOPE      C312           38.7669076652       33.7057668599       -5.3714690687  MEMB      200             0.0000000000
     24880       200  DOPE      H12X           38.0596557584       34.5460350883       -5.2377025904  MEMB      200             0.0000000000
     24881       200  DOPE      H12Y           39.6130997571       33.9131599921       -4.6888114216  MEMB      200             0.0000000000
     24882       200  DOPE      C313           38.1846398059       32.3703694613       -4.8917807976  MEMB      200             0.0000000000
     24883       200  DOPE      H13X           37.0949325805       32.3392030949       -5.0800291092  MEMB      200             0.0000000000
     24884       200  DOPE      H13Y           38.6511645754       31.5560506705       -5.4948115132  MEMB      200             0.0000000000
     24885       200  DOPE      C314           38.5123865661       32.0694836553       -3.4201365503  MEMB      200             0.0000000000
     24886       200  DOPE      H14X           39.6028384942       32.2228898783       -3.2565452011  MEMB      200             0.0000000000
     24887       200  DOPE      H14Y           38.3007643294       30.9925720624       -3.2311146337  MEMB      200             0.0000000000
     24888       200  DOPE      C315           37.7278503888       32.8963371239       -2.3867632212  MEMB      200             0.0000000000
     24889       200  DOPE      H15X           38.0736829443       32.5748210603       -1.3777019731  MEMB      200             0.0000000000
     24890       200  DOPE      H15Y           36.6484203392       32.6447915073       -2.4576661449  MEMB      200             0.0000000000
     24891       200  DOPE      C316           37.9100258180       34.4218426360       -2.4930026770  MEMB      200             0.0000000000
     24892       200  DOPE      H16X           37.2903289374       34.8243443595       -3.3209329324  MEMB      200             0.0000000000
     24893       200  DOPE      H16Y           38.9774252509       34.6505834095       -2.7082395576  MEMB      200             0.0000000000
     24894       200  DOPE      C317           37.5481606139       35.1308163756       -1.1912556441  MEMB      200             0.0000000000
     24895       200  DOPE      H17X           36.5066556055       34.8515528731       -0.9125778943  MEMB      200             0.0000000000
     24896       200  DOPE      H17Y           38.2530090492       34.7231994777       -0.4349476978  MEMB      200             0.0000000000
     24897       200  DOPE      C318           37.6981674742       36.6511089128       -1.1783236876  MEMB      200             0.0000000000
     24898       200  DOPE      H18X           38.7582472938       36.9358268693       -1.3440453055  MEMB      200             0.0000000000
     24899       200  DOPE      H18Y           37.0758600661       37.1173043084       -1.9693579671  MEMB      200             0.0000000000
     24900       200  DOPE      H18Z           37.3807803841       37.0534731051       -0.1900897453  MEMB      200             0.0000000000
     24901       201  TIP3      OH2             2.5979582598       10.4748673974       19.6478460079  TIP3      1               0.0000000000
     24902       201  TIP3      H1              2.5663825456        9.6006022139       19.2343790325  TIP3      1               0.0000000000
     24903       201  TIP3      H2              3.1964516472       10.3396327824       20.3907981222  TIP3      1               0.0000000000
     24904       202  TIP3      OH2             2.5927829358        6.3097930287       21.4925409394  TIP3      2               0.0000000000
     24905       202  TIP3      H1              1.8659020900        6.7406514993       21.9580179215  TIP3      2               0.0000000000
     24906       202  TIP3      H2              2.5125226248        6.6720950839       20.5984085065  TIP3      2               0.0000000000
     24907       203  TIP3      OH2            -9.9589634413        5.8494479311       19.7657593112  TIP3      3               0.0000000000
     24908       203  TIP3      H1             -9.7064195778        6.5448730253       20.3819424503  TIP3      3               0.0000000000
     24909       203  TIP3      H2            -10.6245534562        6.2988777362       19.2124322038  TIP3      3               0.0000000000
     24910       204  TIP3      OH2           -13.1734234103        9.0971643150       20.5120908453  TIP3      4               0.0000000000
     24911       204  TIP3      H1            -13.9819588666        9.1877445554       20.0017593585  TIP3      4               0.0000000000
     24912       204  TIP3      H2            -13.5316069040        8.8411070684       21.3761012664  TIP3      4               0.0000000000
     24913       205  TIP3      OH2           -15.2682681723       -9.8660100634       19.9444628049  TIP3      5               0.0000000000
     24914       205  TIP3      H1            -15.0816043918       -9.3700175905       20.7456211449  TIP3      5               0.0000000000
     24915       205  TIP3      H2            -14.4280184568       -9.7831148981       19.4618198148  TIP3      5               0.0000000000
     24916       206  TIP3      OH2            22.0543024661        2.1209069120       22.0189254809  TIP3      6               0.0000000000
     24917       206  TIP3      H1             22.3633999325        3.0134911465       21.8290253169  TIP3      6               0.0000000000
     24918       206  TIP3      H2             22.4802123652        1.6106351970       21.3032024226  TIP3      6               0.0000000000
     24919       207  TIP3      OH2            19.7668035734        1.9941313114       18.9056421623  TIP3      7              21.0400000000
     24920       207  TIP3      H1             20.4799926879        2.6192394882       18.6819515774  TIP3      7               0.0000000000
     24921       207  TIP3      H2             19.2263016290        1.9399831381       18.1183741980  TIP3      7               0.0000000000
     24922       208  TIP3      OH2            23.4958887962        0.7944675630       20.1666561909  TIP3      8               0.0000000000
     24923       208  TIP3      H1             24.3068178023        0.9853668459       20.6895095197  TIP3      8               0.0000000000
     24924       208  TIP3      H2             23.7012415287       -0.0512122337       19.7352822172  TIP3      8               0.0000000000
     24925       209  TIP3      OH2           -21.8457155428      -13.6420978496       20.2442408468  TIP3      9               0.0000000000
     24926       209  TIP3      H1            -21.1687057894      -13.7704668491       19.5570161949  TIP3      9               0.0000000000
     24927       209  TIP3      H2            -22.6153619142      -13.4095770742       19.7170849006  TIP3      9               0.0000000000
     24928       210  TIP3      OH2            24.0609114196      -14.6152090794       20.5913719652  TIP3      10              0.0000000000
     24929       210  TIP3      H1             23.3419367117      -14.4213306913       19.9460843775  TIP3      10              0.0000000000
     24930       210  TIP3      H2             24.1046309670      -15.5756491194       20.6287200587  TIP3      10              0.0000000000
     24931       211  TIP3      OH2            19.7818181630      -12.9467806772       19.8747730333  TIP3      11              0.0000000000
     24932       211  TIP3      H1             19.9116675672      -12.0477247421       20.2318341179  TIP3      11              0.0000000000
     24933       211  TIP3      H2             19.1819051831      -12.7954386733       19.1349922140  TIP3      11              0.0000000000
     24934       212  TIP3      OH2            -9.3054649191       24.7152600556       20.5986189984  TIP3      12              0.0000000000
     24935       212  TIP3      H1             -9.2875061262       24.3367969694       21.4880695191  TIP3      12              0.0000000000
     24936       212  TIP3      H2            -10.1945104461       25.1327242488       20.5855333245  TIP3      12              0.0000000000
     24937       213  TIP3      OH2           -10.8231593308       22.1566809971       19.7507357830  TIP3      13              0.0000000000
     24938       213  TIP3      H1            -11.2779842260       21.6559303957       20.4478302488  TIP3      13              0.0000000000
     24939       213  TIP3      H2            -10.0804661929       22.5234513618       20.2326430402  TIP3      13              0.0000000000
     24940       214  TIP3      OH2           -11.7937604876       26.6592873113       20.4475745286  TIP3      14              0.0000000000
     24941       214  TIP3      H1            -12.0990883943       27.5703237182       20.2584369685  TIP3      14              0.0000000000
     24942       214  TIP3      H2            -11.9762585727       26.2001529932       19.5968540714  TIP3      14              0.0000000000
     24943       215  TIP3      OH2           -24.8234498003       19.2932486172       21.3026747790  TIP3      15              0.0000000000
     24944       215  TIP3      H1            -24.4234071987       18.4265156951       21.1947571281  TIP3      15              0.0000000000
     24945       215  TIP3      H2            -24.7152139285       19.7451993837       20.4376800889  TIP3      15              0.0000000000
     24946       216  TIP3      OH2           -27.8337530986       17.6540977878       20.3421590025  TIP3      16              0.0000000000
     24947       216  TIP3      H1            -27.1609814828       17.3151203520       20.9497410137  TIP3      16              0.0000000000
     24948       216  TIP3      H2            -27.4497948931       18.4936629864       20.0700728466  TIP3      16              0.0000000000
     24949       217  TIP3      OH2           -26.0330211987       16.1786458485       21.7204831198  TIP3      17              0.0000000000
     24950       217  TIP3      H1            -25.9789007529       16.0694325300       20.7459901197  TIP3      17              0.0000000000
     24951       217  TIP3      H2            -25.5780161843       15.3887618756       22.0597099547  TIP3      17              0.0000000000
     24952       218  TIP3      OH2           -26.2408599721       13.6709432186       19.6119781901  TIP3      18              0.0000000000
     24953       218  TIP3      H1            -26.6380432627       13.8078875562       20.4789877446  TIP3      18              0.0000000000
     24954       218  TIP3      H2            -26.2696553690       12.6998259944       19.5230991816  TIP3      18              0.0000000000
     24955       219  TIP3      OH2            -4.1522420757      -31.8805579292       21.0577624112  TIP3      19              0.0000000000
     24956       219  TIP3      H1             -4.3183513373      -30.9803699291       21.3865452158  TIP3      19              0.0000000000
     24957       219  TIP3      H2             -4.9202129316      -32.3989976100       21.3647989695  TIP3      19              0.0000000000
     24958       220  TIP3      OH2           -32.0316242987       15.0488818126       20.5409974508  TIP3      20              0.0000000000
     24959       220  TIP3      H1            -31.7193862200       14.1349969538       20.5018082701  TIP3      20              0.0000000000
     24960       220  TIP3      H2            -32.1430836966       15.2990203691       19.6123287631  TIP3      20              0.0000000000
     24961       221  TIP3      OH2            17.3329363107       32.2429277847       20.1027079189  TIP3      21            -31.2400000000
     24962       221  TIP3      H1             16.4750489359       32.6672262200       19.9040741656  TIP3      21            -31.3700000000
     24963       221  TIP3      H2             17.9809318573       32.9254752220       19.9203866783  TIP3      21            -32.1200000000
     24964       222  TIP3      OH2           -19.4092948482      -33.7141221084       20.0331003348  TIP3      22              0.0000000000
     24965       222  TIP3      H1            -19.2650500785      -33.8596730531       20.9758227390  TIP3      22              0.0000000000
     24966       222  TIP3      H2            -18.5419695835      -33.9298597495       19.6768534088  TIP3      22              0.0000000000
     24967       223  TIP3      OH2           -11.9623368781      -37.5794675599       20.7154009824  TIP3      23              0.0000000000
     24968       223  TIP3      H1            -11.1288595517      -37.3061305024       21.1143980802  TIP3      23              0.0000000000
     24969       223  TIP3      H2            -12.5983619428      -37.1716833654       21.3262365858  TIP3      23              0.0000000000
     24970       224  TIP3      OH2           -14.4328640493      -34.7543004212       21.1862628529  TIP3      24              0.0000000000
     24971       224  TIP3      H1            -14.0763660596      -33.9840781903       21.6398734326  TIP3      24              0.0000000000
     24972       224  TIP3      H2            -13.8029040386      -34.8647472256       20.4576486638  TIP3      24              0.0000000000
     24973       225  TIP3      OH2            14.5442463295      -36.7160222554       21.2109535190  TIP3      25              0.0000000000
     24974       225  TIP3      H1             14.1334703399      -36.9299123494       20.3637004009  TIP3      25              0.0000000000
     24975       225  TIP3      H2             14.7274031248      -35.7757975539       21.0974307302  TIP3      25              0.0000000000
     24976       226  TIP3      OH2            15.9406802236      -32.6482981242       19.6727933336  TIP3      26              0.0000000000
     24977       226  TIP3      H1             16.2790485171      -32.3430571844       18.8268611674  TIP3      26              0.0000000000
     24978       226  TIP3      H2             15.3343775323      -31.9420005197       19.9225050564  TIP3      26              0.0000000000
     24979       227  TIP3      OH2            33.6223509920      -20.0402072270       19.8315602537  TIP3      27              0.0000000000
     24980       227  TIP3      H1             32.7901925861      -20.0546491888       19.3438952342  TIP3      27              0.0000000000
     24981       227  TIP3      H2             33.9872055901      -19.1693092320       19.6036008769  TIP3      27              0.0000000000
     24982       228  TIP3      OH2            36.5119639729      -21.4718547414       21.8281723552  TIP3      28              0.0000000000
     24983       228  TIP3      H1             36.8397201290      -20.7973661158       21.2242608802  TIP3      28              0.0000000000
     24984       228  TIP3      H2             36.5700803564      -22.2490591603       21.2453343614  TIP3      28              0.0000000000
     24985       229  TIP3      OH2            35.6394384494      -27.6130661265       17.0280500743  TIP3      29              0.0000000000
     24986       229  TIP3      H1             35.8054320347      -26.8959364090       17.6489579366  TIP3      29              0.0000000000
     24987       229  TIP3      H2             36.3771143452      -28.1868929576       17.3257281205  TIP3      29              0.0000000000
     24988       230  TIP3      OH2           -28.2970113725      -35.9212317370       20.2267167281  TIP3      30              0.0000000000
     24989       230  TIP3      H1            -29.0521909372      -36.5077384071       20.1397199322  TIP3      30              0.0000000000
     24990       230  TIP3      H2            -28.1614283652      -35.8899637769       21.1906449416  TIP3      30              0.0000000000
     24991       231  TIP3      OH2           -23.6374117673      -33.5349044332       18.9281834822  TIP3      31              0.0000000000
     24992       231  TIP3      H1            -23.9737978611      -34.1676842703       19.5793339946  TIP3      31              0.0000000000
     24993       231  TIP3      H2            -24.2057547969      -33.7573249438       18.1815576319  TIP3      31              0.0000000000
     24994       232  TIP3      OH2             3.0663240724       -1.8002298481      -20.8747239332  TIP3      32              0.0000000000
     24995       232  TIP3      H1              3.7673588552       -2.3449086802      -20.4842015155  TIP3      32              0.0000000000
     24996       232  TIP3      H2              3.2743847798       -0.9419662542      -20.4816453825  TIP3      32              0.0000000000
     24997       233  TIP3      OH2             6.2808695936        1.2849062989      -20.7059488502  TIP3      33              0.0000000000
     24998       233  TIP3      H1              5.8408387508        1.7908769407      -21.4052792867  TIP3      33              0.0000000000
     24999       233  TIP3      H2              7.2030479231        1.3458912651      -20.9875958160  TIP3      33              0.0000000000
     25000       234  TIP3      OH2            11.6162523503       -1.3077765569      -19.7300079198  TIP3      34              0.0000000000
     25001       234  TIP3      H1             12.1340160650       -0.5717851252      -19.3559931960  TIP3      34              0.0000000000
     25002       234  TIP3      H2             12.2211545746       -2.0653008905      -19.6361115443  TIP3      34              0.0000000000
     25003       235  TIP3      OH2             9.9685688103        2.2640469522      -19.9035303074  TIP3      35              0.0000000000
     25004       235  TIP3      H1             10.7617825354        2.7429721031      -20.1557036010  TIP3      35              0.0000000000
     25005       235  TIP3      H2              9.4112951169        2.9436144066      -19.5052648769  TIP3      35              0.0000000000
     25006       236  TIP3      OH2            -6.0955620742       13.8644232480      -19.4723653799  TIP3      36              0.0000000000
     25007       236  TIP3      H1             -6.1484390501       12.9096376110      -19.4683369892  TIP3      36              0.0000000000
     25008       236  TIP3      H2             -6.9378922101       14.1056100226      -19.8958391680  TIP3      36              0.0000000000
     25009       237  TIP3      OH2            -0.5021183302       14.4166369869      -20.2362953052  TIP3      37              0.0000000000
     25010       237  TIP3      H1             -0.8369319520       15.2875834741      -20.4811228182  TIP3      37              0.0000000000
     25011       237  TIP3      H2             -1.1968129226       14.1269099673      -19.6104391018  TIP3      37              0.0000000000
     25012       238  TIP3      OH2             7.1148393155       15.7813088730      -20.1029940895  TIP3      38              0.0000000000
     25013       238  TIP3      H1              6.7037338319       14.9726053787      -19.7373754731  TIP3      38              0.0000000000
     25014       238  TIP3      H2              7.3750450876       16.2228698029      -19.2828446673  TIP3      38              0.0000000000
     25015       239  TIP3      OH2             4.8814915130       11.7780238418      -20.5062226449  TIP3      39              0.0000000000
     25016       239  TIP3      H1              4.1773793680       11.1264835364      -20.6982282864  TIP3      39              0.0000000000
     25017       239  TIP3      H2              5.6652656529       11.2214201935      -20.5905122730  TIP3      39              0.0000000000
     25018       240  TIP3      OH2            -8.9497025787       13.8796001605      -20.4982191573  TIP3      40              0.0000000000
     25019       240  TIP3      H1             -9.6883318292       14.4888887326      -20.3229432866  TIP3      40              0.0000000000
     25020       240  TIP3      H2             -9.3804981122       13.0066063755      -20.4652760978  TIP3      40              0.0000000000
     25021       241  TIP3      OH2           -14.5756947137       14.4896898029      -21.2484190984  TIP3      41              0.0000000000
     25022       241  TIP3      H1            -14.4121942028       13.5478941911      -21.4353738461  TIP3      41              0.0000000000
     25023       241  TIP3      H2            -14.2216362778       14.5496294811      -20.3481768396  TIP3      41              0.0000000000
     25024       242  TIP3      OH2           -12.5728092640       16.5427962139      -19.2275586040  TIP3      42              0.0000000000
     25025       242  TIP3      H1            -12.4819160583       16.1794741826      -20.1191403134  TIP3      42              0.0000000000
     25026       242  TIP3      H2            -12.4431651117       15.7470906301      -18.6720559398  TIP3      42              0.0000000000
     25027       243  TIP3      OH2           -13.1325860745       12.2437520012      -20.8322532065  TIP3      43              0.0000000000
     25028       243  TIP3      H1            -13.3987930279       11.3476769645      -20.5948992749  TIP3      43              0.0000000000
     25029       243  TIP3      H2            -12.4198869958       12.0776669631      -21.4606705154  TIP3      43              0.0000000000
     25030       244  TIP3      OH2           -11.6980181313       14.9670120584      -21.7998857097  TIP3      44              0.0000000000
     25031       244  TIP3      H1            -11.4197754650       14.6723024561      -22.6790606149  TIP3      44              0.0000000000
     25032       244  TIP3      H2            -12.6178785769       14.6604543498      -21.7398191931  TIP3      44              0.0000000000
     25033       245  TIP3      OH2           -13.9387677863      -22.1626485145      -18.5143772266  TIP3      45              0.0000000000
     25034       245  TIP3      H1            -13.3750501005      -22.7515452765      -19.0343548107  TIP3      45              0.0000000000
     25035       245  TIP3      H2            -13.2532761477      -21.8326655984      -17.8861850588  TIP3      45              0.0000000000
     25036       246  TIP3      OH2           -13.1414371822      -19.2976169296      -18.3975238025  TIP3      46              0.0000000000
     25037       246  TIP3      H1            -13.1962444392      -19.9781983874      -19.0699515386  TIP3      46              0.0000000000
     25038       246  TIP3      H2            -13.2513452902      -19.8048694110      -17.5842147871  TIP3      46              0.0000000000
     25039       247  TIP3      OH2           -19.1293616120      -23.2320363733      -19.9208751785  TIP3      47              0.0000000000
     25040       247  TIP3      H1            -19.9397608522      -23.5910176701      -20.3056719337  TIP3      47              0.0000000000
     25041       247  TIP3      H2            -18.4152503597      -23.5419929221      -20.5194719613  TIP3      47              0.0000000000
     25042       248  TIP3      OH2           -16.8060376110      -23.6694315677      -21.2315924182  TIP3      48              0.0000000000
     25043       248  TIP3      H1            -16.1925016956      -22.9188973719      -21.0772715258  TIP3      48              0.0000000000
     25044       248  TIP3      H2            -16.3976415218      -24.4309714136      -20.7823566748  TIP3      48              0.0000000000
     25045       249  TIP3      OH2           -18.4903154828      -18.5938255397      -20.5445881167  TIP3      49              0.0000000000
     25046       249  TIP3      H1            -18.1876451869      -19.2222516224      -19.8705198192  TIP3      49              0.0000000000
     25047       249  TIP3      H2            -18.6792230938      -17.7915310869      -20.0544025792  TIP3      49              0.0000000000
     25048       250  TIP3      OH2           -15.3168775498      -21.2206831893      -20.6715627418  TIP3      50              0.0000000000
     25049       250  TIP3      H1            -16.0129046284      -20.8823270914      -20.0852359190  TIP3      50              0.0000000000
     25050       250  TIP3      H2            -14.6517058622      -21.4784800119      -20.0004383301  TIP3      50              0.0000000000
     25051       251  TIP3      OH2            19.8171148601       22.0717196903      -20.6332745100  TIP3      51              0.0000000000
     25052       251  TIP3      H1             19.2081679980       22.4955779245      -21.2536542268  TIP3      51              0.0000000000
     25053       251  TIP3      H2             20.5641032978       22.6668284719      -20.6606048275  TIP3      51              0.0000000000
     25054       252  TIP3      OH2           -10.0484300288       27.4714928198      -20.5673882483  TIP3      52              0.0000000000
     25055       252  TIP3      H1             -9.5141392693       27.8665769879      -21.2662226294  TIP3      52              0.0000000000
     25056       252  TIP3      H2             -9.6832017352       26.5888157114      -20.4674540052  TIP3      52              0.0000000000
     25057       253  TIP3      OH2           -14.6935893517       28.8698851524      -19.0663144923  TIP3      53              0.0000000000
     25058       253  TIP3      H1            -14.1740985910       28.0508896703      -18.9818493135  TIP3      53              0.0000000000
     25059       253  TIP3      H2            -15.3341449447       28.6429246949      -19.7411802313  TIP3      53              0.0000000000
     25060       254  TIP3      OH2           -30.4059486968       16.4047220410      -19.9060437929  TIP3      54              0.0000000000
     25061       254  TIP3      H1            -30.4352979778       17.2827751655      -19.4807881436  TIP3      54              0.0000000000
     25062       254  TIP3      H2            -29.6486470483       15.9641899470      -19.5210089712  TIP3      54              0.0000000000
     25063       255  TIP3      OH2           -32.5252665454       12.9186867239      -20.8582733571  TIP3      55              0.0000000000
     25064       255  TIP3      H1            -31.5786765892       12.7955484681      -20.6692228596  TIP3      55              0.0000000000
     25065       255  TIP3      H2            -32.8198917387       12.0072337897      -20.8133871606  TIP3      55              0.0000000000
     25066       256  TIP3      OH2           -30.3035848311       10.9407497460      -20.9621476143  TIP3      56              0.0000000000
     25067       256  TIP3      H1            -29.3486425520       10.9081174399      -20.8596323308  TIP3      56              0.0000000000
     25068       256  TIP3      H2            -30.5937950184       10.0416523920      -20.7172416785  TIP3      56              0.0000000000
     25069       257  TIP3      OH2             1.4807280899       34.1158743524      -20.0292618336  TIP3      57              0.0000000000
     25070       257  TIP3      H1              0.9618352520       33.4354839410      -19.5676674450  TIP3      57              0.0000000000
     25071       257  TIP3      H2              2.2070747977       33.5972754990      -20.3904344932  TIP3      57              0.0000000000
     25072       258  TIP3      OH2            -2.1179085849       33.7950473221      -20.8214375559  TIP3      58              0.0000000000
     25073       258  TIP3      H1             -2.2124501636       34.2162194648      -21.6914685462  TIP3      58              0.0000000000
     25074       258  TIP3      H2             -2.8957357915       34.1533729884      -20.3698310295  TIP3      58              0.0000000000
     25075       259  TIP3      OH2           -28.0757545833      -14.4255390365      -21.0024350688  TIP3      59            -29.1200000000
     25076       259  TIP3      H1            -27.8571415079      -15.2446242569      -21.5002316232  TIP3      59            -29.7600000000
     25077       259  TIP3      H2            -27.2635180878      -13.9069899110      -21.0243839708  TIP3      59            -29.4500000000
     25078       260  TIP3      OH2           -31.4953541445      -13.4588704301      -21.3112452806  TIP3      60              0.0000000000
     25079       260  TIP3      H1            -31.5839991383      -14.3097881016      -21.7555329783  TIP3      60              0.0000000000
     25080       260  TIP3      H2            -31.6033723111      -13.7081821432      -20.3805328215  TIP3      60              0.0000000000
     25081       261  TIP3      OH2            32.1629064628      -12.8052250592      -21.9472120096  TIP3      61            -32.9800000000
     25082       261  TIP3      H1             33.0012841809      -13.2429003272      -21.7591358109  TIP3      61            -32.1900000000
     25083       261  TIP3      H2             31.5881341195      -13.2449026925      -21.3146918790  TIP3      61            -33.6700000000
     25084       262  TIP3      OH2            28.8282555615      -15.4542250235      -19.5829146195  TIP3      62              0.0000000000
     25085       262  TIP3      H1             28.4232052480      -16.2371691190      -19.1920874192  TIP3      62              0.0000000000
     25086       262  TIP3      H2             29.0181397034      -15.7599946678      -20.4819283119  TIP3      62              0.0000000000
     25087       263  TIP3      OH2            29.4883393034      -10.1529510024      -19.2358788808  TIP3      63              0.0000000000
     25088       263  TIP3      H1             29.8117983894      -11.0336679241      -18.9933135749  TIP3      63              0.0000000000
     25089       263  TIP3      H2             28.7320373000      -10.0143919839      -18.6644099598  TIP3      63              0.0000000000
     25090       264  TIP3      OH2            16.5218134585      -36.0665786931      -20.5160782054  TIP3      64              0.0000000000
     25091       264  TIP3      H1             15.7845577402      -36.6309288058      -20.7843403227  TIP3      64              0.0000000000
     25092       264  TIP3      H2             16.1160945285      -35.4558663158      -19.8714689112  TIP3      64              0.0000000000
     25093       265  TIP3      OH2            19.0777553118      -36.0314491517      -19.5974552363  TIP3      65              0.0000000000
     25094       265  TIP3      H1             18.9484927775      -36.9745263809      -19.7398758080  TIP3      65              0.0000000000
     25095       265  TIP3      H2             18.2382331580      -35.6684303172      -19.9501566275  TIP3      65              0.0000000000
     25096       266  TIP3      OH2            20.9110639393      -33.9927097931      -20.0455289053  TIP3      66              0.0000000000
     25097       266  TIP3      H1             20.0258564959      -34.2843720903      -19.7759195390  TIP3      66              0.0000000000
     25098       266  TIP3      H2             21.2628751700      -33.5606249925      -19.2455054583  TIP3      66              0.0000000000
     25099       267  TIP3      OH2            31.3082750381      -26.4804733860      -20.9318953415  TIP3      67              0.0000000000
     25100       267  TIP3      H1             30.7034642471      -26.5416748742      -20.1643071778  TIP3      67              0.0000000000
     25101       267  TIP3      H2             31.0144633706      -27.2155124960      -21.4694680962  TIP3      67              0.0000000000
     25102       268  TIP3      OH2           -35.9480061953       28.7973780014      -21.0820928025  TIP3      68              0.0000000000
     25103       268  TIP3      H1            -35.7285508633       29.7338996437      -20.9909781687  TIP3      68              0.0000000000
     25104       268  TIP3      H2            -35.9667195507       28.5071538098      -20.1550742012  TIP3      68              0.0000000000
     25105       269  TIP3      OH2            34.7139166185      -35.5939316317      -20.2540701348  TIP3      69              0.0000000000
     25106       269  TIP3      H1             34.1200024499      -36.0881110399      -20.8670296210  TIP3      69              0.0000000000
     25107       269  TIP3      H2             35.4321532873      -35.4163790865      -20.8724004891  TIP3      69              0.0000000000
     25108       270  TIP3      OH2            31.5872586054      -34.5058900591      -20.9393056270  TIP3      70              0.0000000000
     25109       270  TIP3      H1             31.7838705947      -35.4034347317      -21.2445338869  TIP3      70              0.0000000000
     25110       270  TIP3      H2             32.0766289482      -34.4024884667      -20.1079132169  TIP3      70              0.0000000000
     25111       271  TIP3      OH2           -26.2668685781      -28.3070449340       26.8132728260  TIP3      71              0.0000000000
     25112       271  TIP3      H1            -26.2424652686      -27.3971840854       27.1656006404  TIP3      71              0.0000000000
     25113       271  TIP3      H2            -26.9363135853      -28.2240934220       26.1109851310  TIP3      71              0.0000000000
     25114       272  TIP3      OH2           -27.3402982503      -29.5328763420       30.2925935595  TIP3      72              0.0000000000
     25115       272  TIP3      H1            -27.3342217126      -29.8816437513       31.2190025327  TIP3      72              0.0000000000
     25116       272  TIP3      H2            -27.7810704446      -30.2715704053       29.8135774458  TIP3      72              0.0000000000
     25117       273  TIP3      OH2           -34.9958830223      -29.2273416911       32.0471463017  TIP3      73              0.0000000000
     25118       273  TIP3      H1            -35.4145777036      -29.9799706409       32.5021021627  TIP3      73              0.0000000000
     25119       273  TIP3      H2            -34.2723745034      -29.0217889971       32.6655653684  TIP3      73              0.0000000000
     25120       274  TIP3      OH2           -24.2130226908      -26.3796862477       28.7791761679  TIP3      74              0.0000000000
     25121       274  TIP3      H1            -24.3443138845      -27.0947870414       29.4329280186  TIP3      74              0.0000000000
     25122       274  TIP3      H2            -24.0708546957      -25.6307698772       29.3724989031  TIP3      74              0.0000000000
     25123       275  TIP3      OH2           -34.6959201219      -24.8834415465       30.1899844583  TIP3      75              0.0000000000
     25124       275  TIP3      H1            -34.9036175477      -25.7984796642       29.8929605256  TIP3      75              0.0000000000
     25125       275  TIP3      H2            -33.7301179957      -24.9464303107       30.1579288175  TIP3      75              0.0000000000
     25126       276  TIP3      OH2           -36.9695517147      -30.8301205912       25.3290365653  TIP3      76              0.0000000000
     25127       276  TIP3      H1            -37.8976800464      -31.1542259848       25.3215220456  TIP3      76              0.0000000000
     25128       276  TIP3      H2            -36.4753687258      -31.6388345339       25.1107384879  TIP3      76              0.0000000000
     25129       277  TIP3      OH2           -36.6965699928      -29.0419292151       28.2254283849  TIP3      77              0.0000000000
     25130       277  TIP3      H1            -36.7396698594      -29.9731024139       28.4971079526  TIP3      77              0.0000000000
     25131       277  TIP3      H2            -36.6458290834      -29.1118372406       27.2626377735  TIP3      77              0.0000000000
     25132       278  TIP3      OH2           -26.5246234338      -20.8387740910       28.6212091167  TIP3      78              0.0000000000
     25133       278  TIP3      H1            -25.8338800575      -21.4079585270       28.1995334724  TIP3      78              0.0000000000
     25134       278  TIP3      H2            -26.9299944964      -21.5117637966       29.1851268056  TIP3      78              0.0000000000
     25135       279  TIP3      OH2           -29.1685511820      -26.3362273806       30.9402202522  TIP3      79              0.0000000000
     25136       279  TIP3      H1            -28.8199819058      -27.0547974497       30.3978623979  TIP3      79              0.0000000000
     25137       279  TIP3      H2            -28.3737031834      -26.1565191746       31.4951808492  TIP3      79              0.0000000000
     25138       280  TIP3      OH2           -20.5350252088      -35.4041814943       31.0693891652  TIP3      80              0.0000000000
     25139       280  TIP3      H1            -20.4049007872      -34.6016545527       31.6170409753  TIP3      80              0.0000000000
     25140       280  TIP3      H2            -19.8905010818      -35.2265024564       30.3639522910  TIP3      80              0.0000000000
     25141       281  TIP3      OH2           -25.5296034695      -32.0936092133       31.3039885416  TIP3      81              0.0000000000
     25142       281  TIP3      H1            -25.3449733907      -33.0178582123       31.5228951528  TIP3      81              0.0000000000
     25143       281  TIP3      H2            -25.7577895343      -32.1805984440       30.3562952283  TIP3      81              0.0000000000
     25144       282  TIP3      OH2           -25.1244756239      -34.2321377840       26.5403229681  TIP3      82              0.0000000000
     25145       282  TIP3      H1            -24.6097983026      -34.4688281566       27.3429331409  TIP3      82              0.0000000000
     25146       282  TIP3      H2            -24.5253305890      -33.5595654023       26.1894927516  TIP3      82              0.0000000000
     25147       283  TIP3      OH2           -36.4148043926      -31.8475956809       28.9494158123  TIP3      83              0.0000000000
     25148       283  TIP3      H1            -35.5249670848      -32.1334271626       29.1801325582  TIP3      83              0.0000000000
     25149       283  TIP3      H2            -36.5505709840      -32.2495657252       28.0753852893  TIP3      83              0.0000000000
     25150       284  TIP3      OH2           -20.3437942071      -33.6567763030       33.3299550183  TIP3      84              0.0000000000
     25151       284  TIP3      H1            -20.7921188300      -32.7868927949       33.2173430216  TIP3      84              0.0000000000
     25152       284  TIP3      H2            -20.3597312665      -33.7824803490       34.2885928222  TIP3      84              0.0000000000
     25153       285  TIP3      OH2           -33.9124141748      -35.0911802116       32.4904377004  TIP3      85              0.0000000000
     25154       285  TIP3      H1            -34.1880394717      -34.5192873954       31.7677932207  TIP3      85              0.0000000000
     25155       285  TIP3      H2            -34.6417196493      -34.9600074121       33.1394637222  TIP3      85              0.0000000000
     25156       286  TIP3      OH2           -26.9049098837      -25.5706562184       25.7605064367  TIP3      86              0.0000000000
     25157       286  TIP3      H1            -27.4306329741      -25.6268509461       24.9483568232  TIP3      86              0.0000000000
     25158       286  TIP3      H2            -27.0605922790      -24.6359756667       25.9851056538  TIP3      86              0.0000000000
     25159       287  TIP3      OH2           -31.1479116830      -27.4612466333       32.3928269520  TIP3      87              0.0000000000
     25160       287  TIP3      H1            -31.7240023646      -26.7382562365       32.7093685469  TIP3      87              0.0000000000
     25161       287  TIP3      H2            -30.5269344458      -26.9599217011       31.8239696557  TIP3      87              0.0000000000
     25162       288  TIP3      OH2           -23.2661530259      -34.2178662416       28.3862588457  TIP3      88              0.0000000000
     25163       288  TIP3      H1            -23.5186078627      -34.3604894300       29.3075676922  TIP3      88              0.0000000000
     25164       288  TIP3      H2            -22.3186553697      -34.0659932181       28.5011668528  TIP3      88              0.0000000000
     25165       289  TIP3      OH2           -32.7483950505      -25.2967283067       33.0657477428  TIP3      89              0.0000000000
     25166       289  TIP3      H1            -32.7853878240      -24.5933571683       32.4107366609  TIP3      89              0.0000000000
     25167       289  TIP3      H2            -33.6811583761      -25.3168918311       33.3701142637  TIP3      89              0.0000000000
     25168       290  TIP3      OH2           -37.5358796341      -26.0464082208       24.6891108802  TIP3      90              0.0000000000
     25169       290  TIP3      H1            -37.1595633550      -26.2208368573       23.8223407538  TIP3      90              0.0000000000
     25170       290  TIP3      H2            -36.7931197372      -25.6298737172       25.1582941082  TIP3      90              0.0000000000
     25171       291  TIP3      OH2           -23.2139111232      -24.3491123819       30.7712070843  TIP3      91              0.0000000000
     25172       291  TIP3      H1            -24.1310979407      -24.1616032667       31.0484600227  TIP3      91              0.0000000000
     25173       291  TIP3      H2            -23.0170594855      -23.5230690017       30.3041399285  TIP3      91              0.0000000000
     25174       292  TIP3      OH2           -22.7301648184      -36.2594416666       32.4164846125  TIP3      92              0.0000000000
     25175       292  TIP3      H1            -23.3435327917      -35.9847782896       31.7171560456  TIP3      92              0.0000000000
     25176       292  TIP3      H2            -21.8891332525      -36.1987182351       31.9060901116  TIP3      92              0.0000000000
     25177       293  TIP3      OH2           -29.6523685351      -37.2455981843       29.5081474494  TIP3      93              0.0000000000
     25178       293  TIP3      H1            -29.8823449154      -38.1549867128       29.7955837622  TIP3      93              0.0000000000
     25179       293  TIP3      H2            -30.4080111540      -36.7318189040       29.8537024048  TIP3      93              0.0000000000
     25180       294  TIP3      OH2           -24.9132079195      -22.5719118109       27.4721178684  TIP3      94              0.0000000000
     25181       294  TIP3      H1            -24.7774121511      -23.3688787655       26.9211441588  TIP3      94              0.0000000000
     25182       294  TIP3      H2            -24.0569477570      -22.1022314551       27.3322482912  TIP3      94              0.0000000000
     25183       295  TIP3      OH2           -23.7820918861      -24.6196650388       25.9286865343  TIP3      95              0.0000000000
     25184       295  TIP3      H1            -23.9358810343      -25.2526447676       25.1985037160  TIP3      95              0.0000000000
     25185       295  TIP3      H2            -24.0184651071      -25.1796959945       26.6918932699  TIP3      95              0.0000000000
     25186       296  TIP3      OH2           -22.2603292254      -25.9310053094       34.6392544715  TIP3      96              0.0000000000
     25187       296  TIP3      H1            -22.0639614922      -26.6285177129       33.9730516762  TIP3      96              0.0000000000
     25188       296  TIP3      H2            -22.1328727776      -25.1409028269       34.0688208733  TIP3      96              0.0000000000
     25189       297  TIP3      OH2           -27.5960379513      -28.9698735039       24.3545385266  TIP3      97              0.0000000000
     25190       297  TIP3      H1            -28.2450993804      -28.4023636542       23.8867679999  TIP3      97              0.0000000000
     25191       297  TIP3      H2            -26.8523724814      -29.0314506310       23.7259905228  TIP3      97              0.0000000000
     25192       298  TIP3      OH2           -27.4056074126      -30.3147572713       21.3130347633  TIP3      98              0.0000000000
     25193       298  TIP3      H1            -26.5822708618      -30.2785899763       21.8191051021  TIP3      98              0.0000000000
     25194       298  TIP3      H2            -27.0347528416      -30.0033453167       20.4479850873  TIP3      98              0.0000000000
     25195       299  TIP3      OH2           -20.2174459152      -29.4320358789       32.6095714572  TIP3      99              0.0000000000
     25196       299  TIP3      H1            -20.8897478274      -28.7375013381       32.4618923761  TIP3      99              0.0000000000
     25197       299  TIP3      H2            -19.6187145253      -29.2363985038       31.8482962769  TIP3      99              0.0000000000
     25198       300  TIP3      OH2           -24.0676165323      -28.9994679271       25.3698055611  TIP3      100             0.0000000000
     25199       300  TIP3      H1            -24.8173722865      -28.8186225362       25.9888330830  TIP3      100             0.0000000000
     25200       300  TIP3      H2            -23.4035053966      -29.4137546781       25.9694233509  TIP3      100             0.0000000000
     25201       301  TIP3      OH2           -24.3816491327      -30.9095550396       34.4957741236  TIP3      101             0.0000000000
     25202       301  TIP3      H1            -24.5557885498      -29.9839932232       34.7479276320  TIP3      101             0.0000000000
     25203       301  TIP3      H2            -25.0275475940      -31.0005586265       33.7731774135  TIP3      101             0.0000000000
     25204       302  TIP3      OH2           -32.4422293895      -28.1855983608       27.1219763872  TIP3      102             0.0000000000
     25205       302  TIP3      H1            -32.9435186971      -28.3625895800       26.2914006915  TIP3      102             0.0000000000
     25206       302  TIP3      H2            -31.9716953918      -29.0062444471       27.2651212264  TIP3      102             0.0000000000
     25207       303  TIP3      OH2           -31.2660510085      -25.0623755795       29.8646604559  TIP3      103             0.0000000000
     25208       303  TIP3      H1            -31.2509002538      -25.2416516719       28.9088313029  TIP3      103             0.0000000000
     25209       303  TIP3      H2            -30.4510061375      -25.4930434666       30.2043861108  TIP3      103             0.0000000000
     25210       304  TIP3      OH2           -32.0873965338      -29.4795994202       30.7791711886  TIP3      104             0.0000000000
     25211       304  TIP3      H1            -31.7647846174      -29.0053218274       30.0110029301  TIP3      104             0.0000000000
     25212       304  TIP3      H2            -32.0768120631      -28.7809886018       31.4690848813  TIP3      104             0.0000000000
     25213       305  TIP3      OH2           -25.7154809471      -23.8756857443       31.5653417556  TIP3      105             0.0000000000
     25214       305  TIP3      H1            -25.8454950595      -23.1736822649       32.2352292960  TIP3      105             0.0000000000
     25215       305  TIP3      H2            -26.2126870857      -24.6123221989       31.9692959325  TIP3      105             0.0000000000
     25216       306  TIP3      OH2           -31.3458846447      -25.0647392765       35.3908057790  TIP3      106             0.0000000000
     25217       306  TIP3      H1            -32.0739320618      -24.6588880959       35.9290122745  TIP3      106             0.0000000000
     25218       306  TIP3      H2            -31.7883932293      -25.1755797855       34.5162754731  TIP3      106             0.0000000000
     25219       307  TIP3      OH2           -25.2208242898      -29.6398948754       23.0103087821  TIP3      107             0.0000000000
     25220       307  TIP3      H1            -24.7361885313      -29.3222357893       23.8180675326  TIP3      107             0.0000000000
     25221       307  TIP3      H2            -24.8123899094      -29.1027385514       22.3101890911  TIP3      107             0.0000000000
     25222       308  TIP3      OH2           -33.8454658894      -28.8075145256       34.5262500485  TIP3      108             0.0000000000
     25223       308  TIP3      H1            -34.0256450079      -28.0509896492       35.1195723676  TIP3      108             0.0000000000
     25224       308  TIP3      H2            -34.7525434568      -29.1289911186       34.3882903319  TIP3      108             0.0000000000
     25225       309  TIP3      OH2           -27.7788673484      -22.5547379366       25.9956413664  TIP3      109             0.0000000000
     25226       309  TIP3      H1            -27.7555811828      -22.2809275743       26.9219414480  TIP3      109             0.0000000000
     25227       309  TIP3      H2            -28.0910669505      -21.7288608066       25.5617303884  TIP3      109             0.0000000000
     25228       310  TIP3      OH2           -33.1337545407      -23.3087975979       36.3541236402  TIP3      110             0.0000000000
     25229       310  TIP3      H1            -33.2032665689      -23.0718389517       35.4011294174  TIP3      110             0.0000000000
     25230       310  TIP3      H2            -34.0739365803      -23.2947365892       36.6071540332  TIP3      110             0.0000000000
     25231       311  TIP3      OH2           -21.5697004479      -37.4416785488       22.9129200360  TIP3      111             0.0000000000
     25232       311  TIP3      H1            -22.1611783295      -36.8798505961       23.4498340510  TIP3      111             0.0000000000
     25233       311  TIP3      H2            -21.6796862545      -37.0087668206       22.0591805476  TIP3      111             0.0000000000
     25234       312  TIP3      OH2           -33.6248126457      -29.2874128300       24.8732608023  TIP3      112             0.0000000000
     25235       312  TIP3      H1            -34.2119316966      -28.6425432178       24.4507038991  TIP3      112             0.0000000000
     25236       312  TIP3      H2            -33.9942087830      -30.1172303186       24.5362629349  TIP3      112             0.0000000000
     25237       313  TIP3      OH2           -36.7204090289      -26.9367306526       33.9342408262  TIP3      113             0.0000000000
     25238       313  TIP3      H1            -37.6106609487      -26.8273146796       33.5398978891  TIP3      113             0.0000000000
     25239       313  TIP3      H2            -36.7444810339      -27.8790643263       34.1693889438  TIP3      113             0.0000000000
     25240       314  TIP3      OH2           -37.0804815456      -23.7717941062       30.4536179227  TIP3      114             0.0000000000
     25241       314  TIP3      H1            -36.3309826961      -24.4057079293       30.4298186038  TIP3      114             0.0000000000
     25242       314  TIP3      H2            -36.7374987834      -23.1942960472       31.1738293184  TIP3      114             0.0000000000
     25243       315  TIP3      OH2           -19.5918964779      -23.5047128085       36.2779566080  TIP3      115             0.0000000000
     25244       315  TIP3      H1            -19.7291766216      -24.4340222651       36.0452201513  TIP3      115             0.0000000000
     25245       315  TIP3      H2            -20.4967216340      -23.2980305414       36.6211948975  TIP3      115             0.0000000000
     25246       316  TIP3      OH2           -28.8291318210      -24.0541308568       35.2820127156  TIP3      116             0.0000000000
     25247       316  TIP3      H1            -28.7695040727      -23.2789625999       35.8702830418  TIP3      116             0.0000000000
     25248       316  TIP3      H2            -29.7810701306      -24.3086511619       35.3113021278  TIP3      116             0.0000000000
     25249       317  TIP3      OH2           -28.1706023489      -20.2667811108       24.6812770331  TIP3      117             0.0000000000
     25250       317  TIP3      H1            -28.5769994506      -19.9640915725       23.8567806016  TIP3      117             0.0000000000
     25251       317  TIP3      H2            -28.1733531756      -19.4411733791       25.1868486715  TIP3      117             0.0000000000
     25252       318  TIP3      OH2           -25.3129706563      -21.0173790365       24.8349623193  TIP3      118             0.0000000000
     25253       318  TIP3      H1            -26.2737503294      -21.1320716743       24.7452105814  TIP3      118             0.0000000000
     25254       318  TIP3      H2            -25.0639288892      -21.8245884849       25.3052343766  TIP3      118             0.0000000000
     25255       319  TIP3      OH2           -22.7292730849      -31.8936171565       36.5375871855  TIP3      119             0.0000000000
     25256       319  TIP3      H1            -23.2064349641      -31.4903090244       35.7746884363  TIP3      119             0.0000000000
     25257       319  TIP3      H2            -22.7423368826      -32.8303013723       36.2762854017  TIP3      119             0.0000000000
     25258       320  TIP3      OH2           -35.2003260577      -24.8804702037       34.3205167381  TIP3      120             0.0000000000
     25259       320  TIP3      H1            -35.0723988452      -25.1528908035       35.2373086070  TIP3      120             0.0000000000
     25260       320  TIP3      H2            -35.8085496104      -25.6113832631       34.0261375480  TIP3      120             0.0000000000
     25261       321  TIP3      OH2           -32.3396665485      -36.0254340624       30.3740479117  TIP3      121             0.0000000000
     25262       321  TIP3      H1            -33.2739700694      -36.1778924990       30.1141692436  TIP3      121             0.0000000000
     25263       321  TIP3      H2            -32.4796000728      -35.6590440480       31.2728305334  TIP3      121             0.0000000000
     25264       322  TIP3      OH2           -28.3843751009      -36.5718323074       34.3830732757  TIP3      122             0.0000000000
     25265       322  TIP3      H1            -27.8547069006      -37.3861365188       34.3828228590  TIP3      122             0.0000000000
     25266       322  TIP3      H2            -29.1414255323      -36.9107381092       33.8632439459  TIP3      122             0.0000000000
     25267       323  TIP3      OH2           -24.7340010661      -33.5798068991       34.6826996993  TIP3      123             0.0000000000
     25268       323  TIP3      H1            -25.3333736190      -33.7260720743       35.4491728060  TIP3      123             0.0000000000
     25269       323  TIP3      H2            -24.4885088107      -32.6413629943       34.7943133043  TIP3      123             0.0000000000
     25270       324  TIP3      OH2           -32.6497940721      -32.0669492058       31.4637418924  TIP3      124             0.0000000000
     25271       324  TIP3      H1            -33.3671035605      -32.0065170468       32.1200022623  TIP3      124             0.0000000000
     25272       324  TIP3      H2            -32.4843802438      -31.1079640561       31.3138835963  TIP3      124             0.0000000000
     25273       325  TIP3      OH2           -27.1581423693      -31.6295955302       24.6361328005  TIP3      125             0.0000000000
     25274       325  TIP3      H1            -27.2079755079      -30.6485880893       24.5768669457  TIP3      125             0.0000000000
     25275       325  TIP3      H2            -26.3178759132      -31.8177410081       24.1739801338  TIP3      125             0.0000000000
     25276       326  TIP3      OH2           -28.0872240358      -31.0166205351       36.6862774460  TIP3      126             0.0000000000
     25277       326  TIP3      H1            -28.5184792747      -31.8460946654       37.0123142979  TIP3      126             0.0000000000
     25278       326  TIP3      H2            -27.3373112575      -30.9997669897       37.3029266900  TIP3      126             0.0000000000
     25279       327  TIP3      OH2           -25.7252159273      -32.1137606931       28.4585591826  TIP3      127             0.0000000000
     25280       327  TIP3      H1            -26.0666100692      -31.3199120770       28.0127234336  TIP3      127             0.0000000000
     25281       327  TIP3      H2            -25.8582185813      -32.7869325249       27.7694111430  TIP3      127             0.0000000000
     25282       328  TIP3      OH2           -34.9519560369      -31.9210549556       33.1279374473  TIP3      128             0.0000000000
     25283       328  TIP3      H1            -34.6026768271      -31.5365708734       33.9376427383  TIP3      128             0.0000000000
     25284       328  TIP3      H2            -35.2718219475      -32.7820909795       33.4417961180  TIP3      128             0.0000000000
     25285       329  TIP3      OH2           -27.1347095389      -30.5647561167       32.8000607079  TIP3      129             0.0000000000
     25286       329  TIP3      H1            -26.5585100861      -31.1144980548       32.2203411909  TIP3      129             0.0000000000
     25287       329  TIP3      H2            -27.5591631593      -31.2576084508       33.3510021841  TIP3      129             0.0000000000
     25288       330  TIP3      OH2           -25.5370301982      -35.1119833208       30.7739998712  TIP3      130             0.0000000000
     25289       330  TIP3      H1            -26.1072309802      -35.0551454698       31.5716088797  TIP3      130             0.0000000000
     25290       330  TIP3      H2            -26.1459461402      -35.4484160296       30.0926674744  TIP3      130             0.0000000000
     25291       331  TIP3      OH2           -22.5324235670      -19.4381887089       37.3461700492  TIP3      131             0.0000000000
     25292       331  TIP3      H1            -22.2794845049      -19.0157978279       36.5036473829  TIP3      131             0.0000000000
     25293       331  TIP3      H2            -21.7254835818      -19.2578682906       37.8527561567  TIP3      131             0.0000000000
     25294       332  TIP3      OH2           -34.2632602072      -26.8828079625       36.4119501308  TIP3      132             0.0000000000
     25295       332  TIP3      H1            -33.6027112076      -26.9078789991       37.1383457132  TIP3      132             0.0000000000
     25296       332  TIP3      H2            -35.0806490302      -27.0402179901       36.9240583818  TIP3      132             0.0000000000
     25297       333  TIP3      OH2           -28.4789422930      -31.7749267343       29.4198186755  TIP3      133             0.0000000000
     25298       333  TIP3      H1            -28.0462636227      -32.5660587595       29.0802590041  TIP3      133             0.0000000000
     25299       333  TIP3      H2            -28.9837854304      -32.1604104928       30.1432816708  TIP3      133             0.0000000000
     25300       334  TIP3      OH2           -29.8528664211      -33.1663756649       31.7625828982  TIP3      134             0.0000000000
     25301       334  TIP3      H1            -30.6132391378      -32.5953087279       31.9655464397  TIP3      134             0.0000000000
     25302       334  TIP3      H2            -29.1937736741      -32.8314705742       32.3963359333  TIP3      134             0.0000000000
     25303       335  TIP3      OH2           -29.5922630610      -27.1711885571       23.6837069816  TIP3      135             0.0000000000
     25304       335  TIP3      H1            -30.3562155992      -27.7434628416       23.6302996339  TIP3      135             0.0000000000
     25305       335  TIP3      H2            -29.7396228335      -26.7631710766       24.5667753000  TIP3      135             0.0000000000
     25306       336  TIP3      OH2           -22.0728996813      -27.4132202187       32.4650517770  TIP3      136             0.0000000000
     25307       336  TIP3      H1            -21.5772506319      -26.8945910473       31.7824631876  TIP3      136             0.0000000000
     25308       336  TIP3      H2            -22.9524977329      -27.4683858058       32.0644489778  TIP3      136             0.0000000000
     25309       337  TIP3      OH2           -26.1147139600      -34.1933585424       22.0408017898  TIP3      137             0.0000000000
     25310       337  TIP3      H1            -26.8085685298      -33.7043544231       21.5892713492  TIP3      137             0.0000000000
     25311       337  TIP3      H2            -25.4920048468      -33.4737246216       22.2676520271  TIP3      137             0.0000000000
     25312       338  TIP3      OH2           -28.3811789294      -26.6615003818       34.8783426678  TIP3      138             0.0000000000
     25313       338  TIP3      H1            -28.5975054841      -26.9541604841       35.7709433691  TIP3      138             0.0000000000
     25314       338  TIP3      H2            -28.3887920824      -25.6878400344       34.9890638571  TIP3      138             0.0000000000
     25315       339  TIP3      OH2           -24.7364218272      -32.3655886684       23.4785189249  TIP3      139             0.0000000000
     25316       339  TIP3      H1            -23.9826858804      -32.3900337693       24.0874718044  TIP3      139             0.0000000000
     25317       339  TIP3      H2            -24.6596318186      -31.4552870607       23.1414257512  TIP3      139             0.0000000000
     25318       340  TIP3      OH2           -34.1121039713      -27.3932351042       29.3285866850  TIP3      140             0.0000000000
     25319       340  TIP3      H1            -33.7239011256      -27.5763302238       28.4568190769  TIP3      140             0.0000000000
     25320       340  TIP3      H2            -33.8933315997      -28.1636443764       29.8705217474  TIP3      140             0.0000000000
     25321       341  TIP3      OH2           -36.5703505818      -29.6789064561       34.5293843408  TIP3      141             0.0000000000
     25322       341  TIP3      H1            -36.6058960775      -29.8261928099       35.4899282550  TIP3      141             0.0000000000
     25323       341  TIP3      H2            -37.5188243301      -29.7222611298       34.2978491681  TIP3      141             0.0000000000
     25324       342  TIP3      OH2           -30.4327861201      -29.5895461000       36.5041796651  TIP3      142             0.0000000000
     25325       342  TIP3      H1            -30.9983706213      -30.1281030080       35.9317157500  TIP3      142             0.0000000000
     25326       342  TIP3      H2            -29.5707756335      -30.0596924874       36.4710296469  TIP3      142             0.0000000000
     25327       343  TIP3      OH2           -25.4613226129      -24.3177053684       35.1822094572  TIP3      143             0.0000000000
     25328       343  TIP3      H1            -26.2727769563      -24.2354578315       34.6720271100  TIP3      143             0.0000000000
     25329       343  TIP3      H2            -25.7419781002      -23.9303062286       36.0357801288  TIP3      143             0.0000000000
     25330       344  TIP3      OH2           -20.1571274078      -32.1124367851       23.4340649318  TIP3      144             0.0000000000
     25331       344  TIP3      H1            -20.7959693013      -32.2817784817       22.7079508963  TIP3      144             0.0000000000
     25332       344  TIP3      H2            -19.8792753492      -31.2083318676       23.1960013468  TIP3      144             0.0000000000
     25333       345  TIP3      OH2           -19.8819578994      -26.4229464064       35.8744465961  TIP3      145             0.0000000000
     25334       345  TIP3      H1            -20.7799811640      -26.2606396304       35.5086705518  TIP3      145             0.0000000000
     25335       345  TIP3      H2            -19.3438620503      -26.4141146182       35.0538863266  TIP3      145             0.0000000000
     25336       346  TIP3      OH2           -21.8529765711      -23.4278909341       23.2738406525  TIP3      146             0.0000000000
     25337       346  TIP3      H1            -21.7556532457      -24.0583496497       24.0033868603  TIP3      146             0.0000000000
     25338       346  TIP3      H2            -21.0399877395      -23.5353168423       22.7527846866  TIP3      146             0.0000000000
     25339       347  TIP3      OH2           -24.6076275569      -28.3754255236       30.5420928681  TIP3      147             0.0000000000
     25340       347  TIP3      H1            -25.4945303300      -28.6956398026       30.3067615348  TIP3      147             0.0000000000
     25341       347  TIP3      H2            -24.0536778936      -29.0520105266       30.1122322940  TIP3      147             0.0000000000
     25342       348  TIP3      OH2           -32.1295438880      -24.5488741763       27.1398877818  TIP3      148             0.0000000000
     25343       348  TIP3      H1            -31.6011884520      -23.7917178722       26.8027039681  TIP3      148             0.0000000000
     25344       348  TIP3      H2            -33.0038265064      -24.3571348825       26.7626647485  TIP3      148             0.0000000000
     25345       349  TIP3      OH2           -36.2889255664      -29.3483076752       21.7402606223  TIP3      149             0.0000000000
     25346       349  TIP3      H1            -36.4603998751      -29.1086163787       20.8183268840  TIP3      149             0.0000000000
     25347       349  TIP3      H2            -37.0979992455      -29.8790861362       21.8580529219  TIP3      149             0.0000000000
     25348       350  TIP3      OH2           -30.4939743556      -26.4858875952       26.2066557415  TIP3      150             0.0000000000
     25349       350  TIP3      H1            -31.0240405780      -25.6986232876       26.4632019130  TIP3      150             0.0000000000
     25350       350  TIP3      H2            -30.8984737119      -27.1520593517       26.7788730749  TIP3      150             0.0000000000
     25351       351  TIP3      OH2           -29.8882217259      -22.4304268800       33.0723759307  TIP3      151             0.0000000000
     25352       351  TIP3      H1            -29.3106375780      -21.7240842727       32.7201009794  TIP3      151             0.0000000000
     25353       351  TIP3      H2            -29.3561836335      -22.7687559405       33.8240600540  TIP3      151             0.0000000000
     25354       352  TIP3      OH2           -31.7320250747      -22.1008387340       25.9697424472  TIP3      152             0.0000000000
     25355       352  TIP3      H1            -32.6474513553      -21.9810557542       26.2342074028  TIP3      152             0.0000000000
     25356       352  TIP3      H2            -31.3875012204      -21.2051256528       26.0427849658  TIP3      152             0.0000000000
     25357       353  TIP3      OH2           -27.0413416509      -26.3901266561       32.4334512216  TIP3      153             0.0000000000
     25358       353  TIP3      H1            -27.4516639576      -26.8639760512       33.1995992051  TIP3      153             0.0000000000
     25359       353  TIP3      H2            -26.5248860736      -27.0990691150       32.0160513131  TIP3      153             0.0000000000
     25360       354  TIP3      OH2           -23.6929122688      -21.9856850413       34.7608910283  TIP3      154             0.0000000000
     25361       354  TIP3      H1            -24.5722018992      -22.3992854549       34.6324155623  TIP3      154             0.0000000000
     25362       354  TIP3      H2            -23.5849597127      -21.3581964567       34.0104083966  TIP3      154             0.0000000000
     25363       355  TIP3      OH2           -35.7470930626      -34.3004842264       34.3821272828  TIP3      155             0.0000000000
     25364       355  TIP3      H1            -36.5239517593      -33.8101296400       34.6511206728  TIP3      155             0.0000000000
     25365       355  TIP3      H2            -36.0712391631      -35.2236532629       34.3790137267  TIP3      155             0.0000000000
     25366       356  TIP3      OH2           -23.6240351934      -26.7518774115       24.0399961521  TIP3      156             0.0000000000
     25367       356  TIP3      H1            -23.7545557179      -27.6202037160       24.4793294097  TIP3      156             0.0000000000
     25368       356  TIP3      H2            -22.6508357385      -26.7116397727       23.9545965261  TIP3      156             0.0000000000
     25369       357  TIP3      OH2           -35.8510834796      -22.6136210692       32.5248925029  TIP3      157             0.0000000000
     25370       357  TIP3      H1            -35.3183081340      -23.4119728675       32.6531161165  TIP3      157             0.0000000000
     25371       357  TIP3      H2            -36.0492902804      -22.3812221287       33.4321997884  TIP3      157             0.0000000000
     25372       358  TIP3      OH2           -31.6125382603      -24.6672109581       22.4791536943  TIP3      158             0.0000000000
     25373       358  TIP3      H1            -30.8124999624      -24.7622761774       23.0238081150  TIP3      158             0.0000000000
     25374       358  TIP3      H2            -31.6866139211      -23.6988997323       22.4319397214  TIP3      158             0.0000000000
     25375       359  TIP3      OH2           -26.7475864613      -34.7226846690       33.2487728177  TIP3      159             0.0000000000
     25376       359  TIP3      H1            -25.9270443032      -34.6142939740       33.7677901475  TIP3      159             0.0000000000
     25377       359  TIP3      H2            -27.2397769887      -35.3885048566       33.7810092765  TIP3      159             0.0000000000
     25378       360  TIP3      OH2           -26.3053194564      -35.4422928098       24.4860078248  TIP3      160             0.0000000000
     25379       360  TIP3      H1            -26.1071507419      -34.9189384484       23.6785322367  TIP3      160             0.0000000000
     25380       360  TIP3      H2            -25.8898603572      -34.9252666428       25.2156868073  TIP3      160             0.0000000000
     25381       361  TIP3      OH2           -28.8941108434      -23.3199056183       23.0427321482  TIP3      161             0.0000000000
     25382       361  TIP3      H1            -29.6644715418      -22.7015684154       23.0661285522  TIP3      161             0.0000000000
     25383       361  TIP3      H2            -28.2572477194      -22.8009147394       23.5514058780  TIP3      161             0.0000000000
     25384       362  TIP3      OH2           -28.7255048631      -33.6104259000       25.8370757179  TIP3      162             0.0000000000
     25385       362  TIP3      H1            -28.2073110271      -33.1792597391       25.1217383613  TIP3      162             0.0000000000
     25386       362  TIP3      H2            -29.0775073395      -32.8658282151       26.3154827089  TIP3      162             0.0000000000
     25387       363  TIP3      OH2           -28.3049451469      -32.3620932894       34.4487141201  TIP3      163             0.0000000000
     25388       363  TIP3      H1            -28.2349491336      -31.7532119163       35.2232241570  TIP3      163             0.0000000000
     25389       363  TIP3      H2            -27.9987091508      -33.2210357352       34.7852587573  TIP3      163             0.0000000000
     25390       364  TIP3      OH2           -28.1998118383      -36.6785191325       25.9828461552  TIP3      164             0.0000000000
     25391       364  TIP3      H1            -28.1735089755      -36.0105027113       26.6836136524  TIP3      164             0.0000000000
     25392       364  TIP3      H2            -27.4754189007      -36.3220035740       25.4249461967  TIP3      164             0.0000000000
     25393       365  TIP3      OH2           -31.0327141745      -21.7452606678       23.1893390234  TIP3      165             0.0000000000
     25394       365  TIP3      H1            -31.3287030671      -20.8667593825       22.9058272269  TIP3      165             0.0000000000
     25395       365  TIP3      H2            -31.4391419965      -21.8387835477       24.0689203945  TIP3      165             0.0000000000
     25396       366  TIP3      OH2           -22.3252114971      -34.4124160614       35.2449425688  TIP3      166             0.0000000000
     25397       366  TIP3      H1            -23.2988987203      -34.2689806818       35.1865705152  TIP3      166             0.0000000000
     25398       366  TIP3      H2            -22.1652763833      -34.7348079483       34.3460159721  TIP3      166             0.0000000000
     25399       367  TIP3      OH2           -23.5362503976      -30.7871461326       29.1368454250  TIP3      167             0.0000000000
     25400       367  TIP3      H1            -24.2854265849      -31.4222167611       29.1334980812  TIP3      167             0.0000000000
     25401       367  TIP3      H2            -22.9073890893      -31.2342723592       29.7408614263  TIP3      167             0.0000000000
     25402       368  TIP3      OH2           -22.6839044807      -21.4192300111       30.7320500616  TIP3      168             0.0000000000
     25403       368  TIP3      H1            -22.6687769014      -20.7787705980       29.9899825689  TIP3      168             0.0000000000
     25404       368  TIP3      H2            -21.7229067118      -21.5173279115       30.8509835756  TIP3      168             0.0000000000
     25405       369  TIP3      OH2           -35.3435902204      -36.5553180799       29.5928716486  TIP3      169             0.0000000000
     25406       369  TIP3      H1            -35.3856876261      -36.6496883631       28.6000833573  TIP3      169             0.0000000000
     25407       369  TIP3      H2            -35.2422685887      -37.5029929433       29.8329616394  TIP3      169             0.0000000000
     25408       370  TIP3      OH2           -36.0985018280      -23.7164527739       25.4783342759  TIP3      170             0.0000000000
     25409       370  TIP3      H1            -36.9552366693      -23.5506398150       25.8781718770  TIP3      170             0.0000000000
     25410       370  TIP3      H2            -35.9942829571      -22.8814873594       24.9751804575  TIP3      170             0.0000000000
     25411       371  TIP3      OH2           -36.7822553778      -20.6497500999       37.0325471570  TIP3      171             0.0000000000
     25412       371  TIP3      H1            -36.1610802545      -20.6430273379       37.7933205541  TIP3      171             0.0000000000
     25413       371  TIP3      H2            -37.0696132715      -21.5718638945       37.1320229990  TIP3      171             0.0000000000
     25414       372  TIP3      OH2           -32.0623806416      -21.6331252668       38.4539057228  TIP3      172             0.0000000000
     25415       372  TIP3      H1            -31.2740887823      -22.1171922727       38.7538345509  TIP3      172             0.0000000000
     25416       372  TIP3      H2            -32.3070795102      -22.1325672603       37.6583201007  TIP3      172             0.0000000000
     25417       373  TIP3      OH2           -26.0279276882      -23.2251767072       37.5478586397  TIP3      173             0.0000000000
     25418       373  TIP3      H1            -26.3720397934      -24.0858324091       37.9068001328  TIP3      173             0.0000000000
     25419       373  TIP3      H2            -25.1552045129      -23.1770788551       37.9951956691  TIP3      173             0.0000000000
     25420       374  TIP3      OH2           -23.3601629952      -22.6974238705       20.2880378388  TIP3      174             0.0000000000
     25421       374  TIP3      H1            -23.4776003814      -23.2913885554       21.0390578957  TIP3      174             0.0000000000
     25422       374  TIP3      H2            -22.3985309472      -22.7704793226       20.2001240589  TIP3      174             0.0000000000
     25423       375  TIP3      OH2           -36.3780985806      -26.7528663655       38.2357737214  TIP3      175             0.0000000000
     25424       375  TIP3      H1            -36.2261573061      -27.7161083688       38.1637808946  TIP3      175             0.0000000000
     25425       375  TIP3      H2            -37.3503759466      -26.7832412538       38.0830561248  TIP3      175             0.0000000000
     25426       376  TIP3      OH2           -30.4796301440      -26.9046357475       37.1506568173  TIP3      176             0.0000000000
     25427       376  TIP3      H1            -30.6678348848      -26.3451555976       36.3643607550  TIP3      176             0.0000000000
     25428       376  TIP3      H2            -30.4143734693      -27.8216491561       36.7835641040  TIP3      176             0.0000000000
     25429       377  TIP3      OH2           -24.8191900662      -27.2175722228       35.0570622318  TIP3      177             0.0000000000
     25430       377  TIP3      H1            -23.9449701847      -26.7667950892       35.0581976255  TIP3      177             0.0000000000
     25431       377  TIP3      H2            -25.3704846536      -26.4274945844       35.1749033851  TIP3      177             0.0000000000
     25432       378  TIP3      OH2           -36.1157894877      -29.7098329487       37.9558921519  TIP3      178             0.0000000000
     25433       378  TIP3      H1            -35.5395396026      -30.4570008301       37.6889367654  TIP3      178             0.0000000000
     25434       378  TIP3      H2            -35.9531800477      -29.6235963187       38.9215853948  TIP3      178             0.0000000000
     25435       379  TIP3      OH2           -32.2046056547      -30.9152293355       34.3276220894  TIP3      179             0.0000000000
     25436       379  TIP3      H1            -32.7155354395      -30.1258200178       34.5946867320  TIP3      179             0.0000000000
     25437       379  TIP3      H2            -31.4309577136      -30.4897087606       33.8868444600  TIP3      179             0.0000000000
     25438       380  TIP3      OH2           -26.8813811790      -27.9315546316       38.1922203431  TIP3      180             0.0000000000
     25439       380  TIP3      H1            -26.1987405593      -28.4501151892       37.7299470283  TIP3      180             0.0000000000
     25440       380  TIP3      H2            -27.1756050666      -28.5677816538       38.8708624113  TIP3      180             0.0000000000
     25441       381  TIP3      OH2           -21.5066130811      -27.9956475118       19.9469284110  TIP3      181             0.0000000000
     25442       381  TIP3      H1            -20.8945256746      -28.4556748542       19.3635246864  TIP3      181             0.0000000000
     25443       381  TIP3      H2            -21.1462937261      -27.0763998457       19.9207965016  TIP3      181             0.0000000000
     25444       382  TIP3      OH2           -31.7961510820      -33.1456756764       35.5998894739  TIP3      182             0.0000000000
     25445       382  TIP3      H1            -31.2847318974      -33.6551106532       34.9431171937  TIP3      182             0.0000000000
     25446       382  TIP3      H2            -31.8665573225      -32.2754452593       35.1378409767  TIP3      182             0.0000000000
     25447       383  TIP3      OH2           -31.3015666602      -34.8494395001       33.3516569358  TIP3      183             0.0000000000
     25448       383  TIP3      H1            -30.7640022906      -34.4838557573       32.6107820029  TIP3      183             0.0000000000
     25449       383  TIP3      H2            -32.2175572569      -34.5974442269       33.1215651004  TIP3      183             0.0000000000
     25450       384  TIP3      OH2           -30.0411769425      -29.6486594202       33.3966088903  TIP3      184             0.0000000000
     25451       384  TIP3      H1            -29.1115194468      -29.3942859127       33.3586565253  TIP3      184             0.0000000000
     25452       384  TIP3      H2            -30.4785174479      -28.8293702776       33.0687278795  TIP3      184             0.0000000000
     25453       385  TIP3      OH2           -25.6162631852      -32.0367209252       38.6026537873  TIP3      185             0.0000000000
     25454       385  TIP3      H1            -25.2692677569      -32.9406697506       38.6289152961  TIP3      185             0.0000000000
     25455       385  TIP3      H2            -24.8138387170      -31.5029148207       38.7286873053  TIP3      185             0.0000000000
     25456       386  TIP3      OH2           -24.1893249518      -28.8710280740       37.0730860457  TIP3      186             0.0000000000
     25457       386  TIP3      H1            -24.5305103207      -28.3189788506       36.3286364438  TIP3      186             0.0000000000
     25458       386  TIP3      H2            -23.2773953864      -29.0010997483       36.7731068462  TIP3      186             0.0000000000
     25459       387  TIP3      OH2           -33.7978389400      -32.0082278677       37.4419388986  TIP3      187             0.0000000000
     25460       387  TIP3      H1            -34.2957972524      -32.8252580093       37.6620938191  TIP3      187             0.0000000000
     25461       387  TIP3      H2            -33.1235393463      -32.3764364692       36.8468833087  TIP3      187             0.0000000000
     25462       388  TIP3      OH2           -30.7842255188      -37.4082212692       33.4519235522  TIP3      188             0.0000000000
     25463       388  TIP3      H1            -30.8439193739      -36.4259356382       33.5943816623  TIP3      188             0.0000000000
     25464       388  TIP3      H2            -31.7326425188      -37.6297505273       33.4279476676  TIP3      188             0.0000000000
     25465       389  TIP3      OH2           -29.1839729129      -33.3009788435       37.6815751793  TIP3      189             0.0000000000
     25466       389  TIP3      H1            -29.6859954428      -33.5452076856       38.4809417941  TIP3      189             0.0000000000
     25467       389  TIP3      H2            -29.8479863962      -33.5438888171       37.0206892382  TIP3      189             0.0000000000
     25468       390  TIP3      OH2           -26.4630121722      -34.4287805874       36.7319777437  TIP3      190             0.0000000000
     25469       390  TIP3      H1            -27.3845914559      -34.2976381939       37.0109753810  TIP3      190             0.0000000000
     25470       390  TIP3      H2            -26.0629827789      -34.8173317224       37.5382241660  TIP3      190             0.0000000000
     25471       391  TIP3      OH2           -24.6825172996      -35.2019822511       38.9517185420  TIP3      191             0.0000000000
     25472       391  TIP3      H1            -24.7650903006      -36.1884033151       38.9872137209  TIP3      191             0.0000000000
     25473       391  TIP3      H2            -25.0800492502      -34.9579954646       39.8261267167  TIP3      191             0.0000000000
     25474       392  TIP3      OH2           -35.0738814724      -34.3317864073       38.0991516299  TIP3      192             0.0000000000
     25475       392  TIP3      H1            -35.1019462911      -34.9551510739       37.3506610334  TIP3      192             0.0000000000
     25476       392  TIP3      H2            -35.4421820490      -34.9037760941       38.8074133261  TIP3      192             0.0000000000
     25477       393  TIP3      OH2           -30.6430228988      -37.5802839399       36.2152848089  TIP3      193             0.0000000000
     25478       393  TIP3      H1            -30.6949254797      -38.5551069263       36.2580161579  TIP3      193             0.0000000000
     25479       393  TIP3      H2            -30.3000324226      -37.4291305181       35.3131900080  TIP3      193             0.0000000000
     25480       394  TIP3      OH2           -30.0501269599      -36.7671863569       38.7198848891  TIP3      194             0.0000000000
     25481       394  TIP3      H1            -30.1220672079      -37.0899566871       37.7970327124  TIP3      194             0.0000000000
     25482       394  TIP3      H2            -30.6956156685      -36.0320709298       38.7255597271  TIP3      194             0.0000000000
     25483       395  TIP3      OH2           -30.1347732487      -19.6206226278       21.4830006238  TIP3      195             0.0000000000
     25484       395  TIP3      H1            -30.2693037341      -18.8760301272       22.0972801853  TIP3      195             0.0000000000
     25485       395  TIP3      H2            -30.9925264817      -19.6092652021       21.0244156039  TIP3      195             0.0000000000
     25486       396  TIP3      OH2           -37.2191725858      -21.8100240994       28.6281484097  TIP3      196             0.0000000000
     25487       396  TIP3      H1            -37.1530446666      -22.7601769793       28.8641713851  TIP3      196             0.0000000000
     25488       396  TIP3      H2            -36.4515412878      -21.4829198187       29.1113204986  TIP3      196             0.0000000000
     25489       397  TIP3      OH2           -19.9480763311      -20.9370699044       30.8581141732  TIP3      197             0.0000000000
     25490       397  TIP3      H1            -19.5790394500      -20.8187242314       31.7442347698  TIP3      197             0.0000000000
     25491       397  TIP3      H2            -19.4877255546      -20.2434361777       30.3708115337  TIP3      197             0.0000000000
     25492       398  TIP3      OH2           -20.6248192570      -21.3238799653       33.7974994381  TIP3      198             0.0000000000
     25493       398  TIP3      H1            -20.9158204775      -22.0983445990       33.2607938477  TIP3      198             0.0000000000
     25494       398  TIP3      H2            -20.3757144359      -21.7956951517       34.6115613368  TIP3      198             0.0000000000
     25495       399  TIP3      OH2           -21.7911752025      -25.6786203163       38.7522342307  TIP3      199             0.0000000000
     25496       399  TIP3      H1            -22.7082098066      -25.6366147745       39.1025401443  TIP3      199             0.0000000000
     25497       399  TIP3      H2            -21.4195582912      -24.8787968501       39.1855688001  TIP3      199             0.0000000000
     25498       400  TIP3      OH2           -20.6815234259      -27.1635257998       23.9579864318  TIP3      200             0.0000000000
     25499       400  TIP3      H1            -19.8518948006      -26.6523642189       24.0916913486  TIP3      200             0.0000000000
     25500       400  TIP3      H2            -20.5917199207      -27.8080758599       24.6884983383  TIP3      200             0.0000000000
     25501       401  TIP3      OH2           -20.2902548199      -28.9278876811       26.0442817389  TIP3      201             0.0000000000
     25502       401  TIP3      H1            -21.0675642239      -29.4650751406       26.3380753142  TIP3      201             0.0000000000
     25503       401  TIP3      H2            -19.7335405434      -28.9116176671       26.8551430645  TIP3      201             0.0000000000
     25504       402  TIP3      OH2           -20.3918813363      -26.4168187346       30.6829649616  TIP3      202             0.0000000000
     25505       402  TIP3      H1            -19.7673455815      -27.1720263623       30.6003437041  TIP3      202             0.0000000000
     25506       402  TIP3      H2            -19.8751092100      -25.6881598180       30.2837458688  TIP3      202             0.0000000000
     25507       403  TIP3      OH2           -21.8704647803      -23.6315353656       33.1342015815  TIP3      203             0.0000000000
     25508       403  TIP3      H1            -22.5544522257      -23.2806141675       33.7329103029  TIP3      203             0.0000000000
     25509       403  TIP3      H2            -22.3829971410      -23.8803518845       32.3340175473  TIP3      203             0.0000000000
     25510       404  TIP3      OH2           -19.8785060659      -29.2172899249       22.1490238798  TIP3      204             0.0000000000
     25511       404  TIP3      H1            -20.7005397104      -29.2869222556       21.6275566691  TIP3      204             0.0000000000
     25512       404  TIP3      H2            -20.0545529477      -28.4096952758       22.6715849287  TIP3      204             0.0000000000
     25513       405  TIP3      OH2           -21.6863420777      -32.1113189740       21.0366232281  TIP3      205             0.0000000000
     25514       405  TIP3      H1            -21.3944433962      -31.4097044978       20.4416152150  TIP3      205             0.0000000000
     25515       405  TIP3      H2            -22.0707657580      -32.7418423475       20.4000296542  TIP3      205             0.0000000000
     25516       406  TIP3      OH2           -22.2877086985      -30.5254319515       26.7660222897  TIP3      206             0.0000000000
     25517       406  TIP3      H1            -22.6288097693      -31.3666347679       26.4095029304  TIP3      206             0.0000000000
     25518       406  TIP3      H2            -22.6105960886      -30.5492679816       27.6967965874  TIP3      206             0.0000000000
     25519       407  TIP3      OH2           -36.7560849063      -27.5449093780       30.5235669294  TIP3      207             0.0000000000
     25520       407  TIP3      H1            -36.5780543674      -28.0823574173       29.7213466392  TIP3      207             0.0000000000
     25521       407  TIP3      H2            -36.0355155946      -27.8574254558       31.1105410129  TIP3      207             0.0000000000
     25522       408  TIP3      OH2           -21.3540494795      -28.7115368218       36.1578232293  TIP3      208             0.0000000000
     25523       408  TIP3      H1            -20.8673353332      -29.5622996765       36.2333922136  TIP3      208             0.0000000000
     25524       408  TIP3      H2            -20.6397275059      -28.0521897261       36.0076897139  TIP3      208             0.0000000000
     25525       409  TIP3      OH2           -20.1984093661      -31.2351591764       36.6525985015  TIP3      209             0.0000000000
     25526       409  TIP3      H1            -21.1060995252      -31.6181306718       36.6348681825  TIP3      209             0.0000000000
     25527       409  TIP3      H2            -19.6391979726      -32.0294049880       36.8496824278  TIP3      209             0.0000000000
     25528       410  TIP3      OH2           -22.6184204072      -32.7309292039       25.0790769275  TIP3      210             0.0000000000
     25529       410  TIP3      H1            -22.5050439674      -33.6579804953       25.3794565014  TIP3      210             0.0000000000
     25530       410  TIP3      H2            -21.7486459908      -32.6021534055       24.6746865763  TIP3      210             0.0000000000
     25531       411  TIP3      OH2           -21.8441819473      -32.4579363209       30.6285842746  TIP3      211             0.0000000000
     25532       411  TIP3      H1            -20.8830947184      -32.2040035690       30.6521183582  TIP3      211             0.0000000000
     25533       411  TIP3      H2            -21.9825962540      -32.4833689618       31.5925988838  TIP3      211             0.0000000000
     25534       412  TIP3      OH2           -21.9848808888      -31.4040592259       33.1018337088  TIP3      212             0.0000000000
     25535       412  TIP3      H1            -22.9055944918      -31.1166743765       33.2278639695  TIP3      212             0.0000000000
     25536       412  TIP3      H2            -21.5120508362      -30.5531363003       32.9954327260  TIP3      212             0.0000000000
     25537       413  TIP3      OH2           -37.1772891897      -32.9197332830       37.1600321259  TIP3      213             0.0000000000
     25538       413  TIP3      H1            -36.2966860023      -33.1648364227       37.5193923598  TIP3      213             0.0000000000
     25539       413  TIP3      H2            -37.3957324838      -33.6560415092       36.5772795505  TIP3      213             0.0000000000
     25540       414  TIP3      OH2           -19.1391243724      -37.4785973641       38.6624838361  TIP3      214             0.0000000000
     25541       414  TIP3      H1            -18.3627319630      -37.5872480917       38.0733972181  TIP3      214             0.0000000000
     25542       414  TIP3      H2            -19.5961145210      -36.8207094136       38.0988595015  TIP3      214             0.0000000000
     25543       415  TIP3      OH2           -21.8338968434      -35.3816855140       25.2913768127  TIP3      215             0.0000000000
     25544       415  TIP3      H1            -21.6033748116      -35.8118392241       26.1429003622  TIP3      215             0.0000000000
     25545       415  TIP3      H2            -22.5342674227      -35.9834554215       24.9720011699  TIP3      215             0.0000000000
     25546       416  TIP3      OH2           -37.0755238745      -34.6315681909       30.4136101657  TIP3      216             0.0000000000
     25547       416  TIP3      H1            -36.5058919729      -35.3846525586       30.1266412921  TIP3      216             0.0000000000
     25548       416  TIP3      H2            -36.4914711392      -34.0919166742       30.9471431431  TIP3      216             0.0000000000
     25549       417  TIP3      OH2           -37.6509092427      -31.6234313172       31.3284998137  TIP3      217             0.0000000000
     25550       417  TIP3      H1            -37.1476942402      -31.7920867268       30.5066017528  TIP3      217             0.0000000000
     25551       417  TIP3      H2            -37.8901245089      -30.6817503165       31.2650629355  TIP3      217             0.0000000000
     25552       418  TIP3      OH2           -20.4429665790      -35.4821684909       37.1788073981  TIP3      218             0.0000000000
     25553       418  TIP3      H1            -21.1829836305      -34.8398702556       37.2083720064  TIP3      218             0.0000000000
     25554       418  TIP3      H2            -20.6275368386      -35.9186148038       36.3252954228  TIP3      218             0.0000000000
     25555       419  TIP3      OH2           -23.0019826370      -20.8262281090       27.1040134130  TIP3      219             0.0000000000
     25556       419  TIP3      H1            -22.4833258743      -20.7940800475       26.2718868510  TIP3      219             0.0000000000
     25557       419  TIP3      H2            -22.6404401056      -20.0890877328       27.6165658374  TIP3      219             0.0000000000
     25558       420  TIP3      OH2           -37.2169297319      -36.2408509292       33.0238113379  TIP3      220             0.0000000000
     25559       420  TIP3      H1            -38.0120952819      -36.5963524608       33.4540538805  TIP3      220             0.0000000000
     25560       420  TIP3      H2            -37.6447327498      -35.4851613069       32.5810986073  TIP3      220             0.0000000000
     25561       421  TIP3      OH2           -35.8241346189      -23.9881811084       37.2347954693  TIP3      221             0.0000000000
     25562       421  TIP3      H1            -36.5860058625      -24.0172780407       36.6502750216  TIP3      221             0.0000000000
     25563       421  TIP3      H2            -35.7130551507      -24.9223351154       37.4811953691  TIP3      221             0.0000000000
     25564       422  TIP3      OH2           -32.6112763801      -22.3293274158       33.7750901791  TIP3      222             0.0000000000
     25565       422  TIP3      H1            -32.6369124095      -21.4918464333       33.2775925975  TIP3      222             0.0000000000
     25566       422  TIP3      H2            -31.6676933542      -22.5754145054       33.7190996734  TIP3      222             0.0000000000
     25567       423  TIP3      OH2           -28.5333261282      -21.3002493566       36.1427135863  TIP3      223             0.0000000000
     25568       423  TIP3      H1            -28.5240704488      -21.5208620842       37.0929140155  TIP3      223             0.0000000000
     25569       423  TIP3      H2            -27.6308516177      -20.9445883795       36.0320461815  TIP3      223             0.0000000000
     25570       424  TIP3      OH2           -26.2947684430      -19.7680469524       35.7027442851  TIP3      224             0.0000000000
     25571       424  TIP3      H1            -25.6023572396      -20.3420205567       35.3614595621  TIP3      224             0.0000000000
     25572       424  TIP3      H2            -25.8999035376      -19.4631081480       36.5487919774  TIP3      224             0.0000000000
     25573       425  TIP3      OH2           -20.9292266815      -36.8550061055       34.7046182783  TIP3      225             0.0000000000
     25574       425  TIP3      H1            -21.7686016223      -36.5907274581       34.2812858352  TIP3      225             0.0000000000
     25575       425  TIP3      H2            -21.1186193985      -37.8102335152       34.8488623819  TIP3      225             0.0000000000
     25576       426  TIP3      OH2           -35.1647673637      -19.3052603293       33.5280246215  TIP3      226             0.0000000000
     25577       426  TIP3      H1            -36.0550602242      -19.0051298765       33.2066985486  TIP3      226             0.0000000000
     25578       426  TIP3      H2            -35.3900070183      -19.6820216920       34.3872668674  TIP3      226             0.0000000000
     25579       427  TIP3      OH2           -32.8515374757      -19.7660717263       32.2606237372  TIP3      227             0.0000000000
     25580       427  TIP3      H1            -33.7706113659      -19.7724365175       32.6231823706  TIP3      227             0.0000000000
     25581       427  TIP3      H2            -32.7415094838      -18.8110129721       32.0976268544  TIP3      227             0.0000000000
     25582       428  TIP3      OH2           -28.2519577262      -20.3717666657       31.6388621289  TIP3      228             0.0000000000
     25583       428  TIP3      H1            -28.3870528820      -19.6853874614       30.9628061560  TIP3      228             0.0000000000
     25584       428  TIP3      H2            -27.9879310474      -19.7835830987       32.3787283598  TIP3      228             0.0000000000
     25585       429  TIP3      OH2           -26.1712794289      -21.6239873179       33.1067811588  TIP3      229             0.0000000000
     25586       429  TIP3      H1            -26.8358345004      -21.3002901194       32.4704031462  TIP3      229             0.0000000000
     25587       429  TIP3      H2            -25.4603068582      -20.9797533327       32.9163446295  TIP3      229             0.0000000000
     25588       430  TIP3      OH2           -23.6271521256      -20.0390817748       32.8023583499  TIP3      230             0.0000000000
     25589       430  TIP3      H1            -23.4193180668      -19.1626197493       32.4315752105  TIP3      230             0.0000000000
     25590       430  TIP3      H2            -23.2926435698      -20.5897528159       32.0549101713  TIP3      230             0.0000000000
     25591       431  TIP3      OH2           -33.9146740170      -22.4653823123       29.0603163800  TIP3      231             0.0000000000
     25592       431  TIP3      H1            -34.1516589542      -23.3255226135       29.4573842712  TIP3      231             0.0000000000
     25593       431  TIP3      H2            -33.0792598432      -22.2976105110       29.5337316623  TIP3      231             0.0000000000
     25594       432  TIP3      OH2           -31.2837044071      -22.2403139845       30.3869640092  TIP3      232             0.0000000000
     25595       432  TIP3      H1            -31.0262833716      -23.1827264388       30.3088570415  TIP3      232             0.0000000000
     25596       432  TIP3      H2            -30.9544784671      -22.0515616445       31.2824549124  TIP3      232             0.0000000000
     25597       433  TIP3      OH2           -27.5963752537      -35.5956235726       28.9966678240  TIP3      233             0.0000000000
     25598       433  TIP3      H1            -28.3071963100      -36.2608798259       29.1363878264  TIP3      233             0.0000000000
     25599       433  TIP3      H2            -26.9269716129      -36.1402426546       28.5396831070  TIP3      233             0.0000000000
     25600       434  TIP3      OH2           -23.1300617841      -37.1427950653       29.1360350383  TIP3      234             0.0000000000
     25601       434  TIP3      H1            -22.5110959046      -36.8336796923       28.4451350583  TIP3      234             0.0000000000
     25602       434  TIP3      H2            -23.9456608151      -36.6458421659       28.9387152359  TIP3      234             0.0000000000
     25603       435  TIP3      OH2           -20.8581223381      -36.4645817557       27.4804390560  TIP3      235             0.0000000000
     25604       435  TIP3      H1            -20.5175886561      -37.1693731265       26.9022728687  TIP3      235             0.0000000000
     25605       435  TIP3      H2            -20.1448691273      -35.7755145905       27.4778976325  TIP3      235             0.0000000000
     25606       436  TIP3      OH2           -35.0995520316      -36.8664769917       27.0243981786  TIP3      236             0.0000000000
     25607       436  TIP3      H1            -35.0651143675      -36.2224204298       26.2810616830  TIP3      236             0.0000000000
     25608       436  TIP3      H2            -35.2572306168      -37.6981204313       26.5593909763  TIP3      236             0.0000000000
     25609       437  TIP3      OH2           -36.6513694285      -37.2617548407       23.0385634522  TIP3      237             0.0000000000
     25610       437  TIP3      H1            -36.8863335616      -36.5421892058       22.4372581034  TIP3      237             0.0000000000
     25611       437  TIP3      H2            -37.0598364660      -37.0147025817       23.8778837373  TIP3      237             0.0000000000
     25612       438  TIP3      OH2           -30.6913503451      -36.8154817219       27.0891317113  TIP3      238             0.0000000000
     25613       438  TIP3      H1            -30.0141391997      -36.8924705111       26.3963644994  TIP3      238             0.0000000000
     25614       438  TIP3      H2            -30.1399029396      -36.7827026779       27.8918617487  TIP3      238             0.0000000000
     25615       439  TIP3      OH2           -25.5843539636      -37.0273809328       27.9393343565  TIP3      239             0.0000000000
     25616       439  TIP3      H1            -25.1803119753      -37.2273014483       27.0867458483  TIP3      239             0.0000000000
     25617       439  TIP3      H2            -25.4976506237      -37.8648352019       28.4351922238  TIP3      239             0.0000000000
     25618       440  TIP3      OH2           -23.9061885596      -36.7185339288       24.2101984860  TIP3      240             0.0000000000
     25619       440  TIP3      H1            -24.8481523729      -36.4471813687       24.1686403143  TIP3      240             0.0000000000
     25620       440  TIP3      H2            -23.9784607778      -37.6933905071       24.2228602411  TIP3      240             0.0000000000
     25621       441  TIP3      OH2           -36.6395522107      -21.5642200755       23.8587052987  TIP3      241             0.0000000000
     25622       441  TIP3      H1            -37.2981075742      -21.9525897351       23.2553767427  TIP3      241             0.0000000000
     25623       441  TIP3      H2            -36.5441270615      -20.6585328558       23.5397676585  TIP3      241             0.0000000000
     25624       442  TIP3      OH2           -29.7557580772      -35.6517672149       23.4018568025  TIP3      242             0.0000000000
     25625       442  TIP3      H1            -29.5724303279      -36.0876597085       24.2413627655  TIP3      242             0.0000000000
     25626       442  TIP3      H2            -29.8347566997      -34.7229882922       23.6579688026  TIP3      242             0.0000000000
     25627       443  TIP3      OH2           -27.6905220063      -21.0853559150       21.9147754119  TIP3      243             0.0000000000
     25628       443  TIP3      H1            -27.0963718453      -20.3254806357       21.9325645627  TIP3      243             0.0000000000
     25629       443  TIP3      H2            -28.5808948838      -20.6670190118       21.9526338238  TIP3      243             0.0000000000
     25630       444  TIP3      OH2           -21.4669390556      -21.2820570407       24.9585767226  TIP3      244             0.0000000000
     25631       444  TIP3      H1            -21.6587678587      -22.0407608641       24.3763896031  TIP3      244             0.0000000000
     25632       444  TIP3      H2            -21.2967347955      -20.6219760172       24.2436237733  TIP3      244             0.0000000000
     25633       445  TIP3      OH2           -35.7037051769      -36.8639020475       36.5845226788  TIP3      245             0.0000000000
     25634       445  TIP3      H1            -35.8458152918      -37.7721666240       36.2944513276  TIP3      245             0.0000000000
     25635       445  TIP3      H2            -34.7906795650      -36.9455386254       36.9428197254  TIP3      245             0.0000000000
     25636       446  TIP3      OH2           -33.3935794389      -37.2389921398       38.0364521686  TIP3      246             0.0000000000
     25637       446  TIP3      H1            -32.5006455705      -37.1154800239       37.6709067337  TIP3      246             0.0000000000
     25638       446  TIP3      H2            -33.5194935044      -38.2123389833       37.9315549422  TIP3      246             0.0000000000
     25639       447  TIP3      OH2           -25.1179770297      -37.8090058860       38.5186022170  TIP3      247             0.0000000000
     25640       447  TIP3      H1            -25.6633241101      -38.5913645675       38.6863911533  TIP3      247             0.0000000000
     25641       447  TIP3      H2            -24.4330795808      -38.2043120909       37.9602710982  TIP3      247             0.0000000000
     25642       448  TIP3      OH2           -21.9285408103      -22.2448673171       36.6427521725  TIP3      248             0.0000000000
     25643       448  TIP3      H1            -22.6511850391      -22.2648249237       35.9685473676  TIP3      248             0.0000000000
     25644       448  TIP3      H2            -22.0580747259      -21.3480384977       37.0024071366  TIP3      248             0.0000000000
     25645       449  TIP3      OH2            -7.3557943341      -28.2974162564       26.8474474834  TIP3      249             0.0000000000
     25646       449  TIP3      H1             -7.7637261793      -27.8823183445       27.6241401850  TIP3      249             0.0000000000
     25647       449  TIP3      H2             -8.0428594844      -28.2371797983       26.1625161863  TIP3      249             0.0000000000
     25648       450  TIP3      OH2            -8.4440634642      -29.4638617475       30.0219538195  TIP3      250             0.0000000000
     25649       450  TIP3      H1             -8.5137459381      -29.7779201755       30.9490961885  TIP3      250             0.0000000000
     25650       450  TIP3      H2             -9.1464173042      -30.0097857431       29.5916047588  TIP3      250             0.0000000000
     25651       451  TIP3      OH2           -16.4754273451      -29.3738841816       31.6586762700  TIP3      251             0.0000000000
     25652       451  TIP3      H1            -16.4727347668      -30.1066021191       32.2942614419  TIP3      251             0.0000000000
     25653       451  TIP3      H2            -15.8994916214      -28.7305627735       32.1123687368  TIP3      251             0.0000000000
     25654       452  TIP3      OH2           -15.3115813515      -24.7245561535       30.0372092719  TIP3      252             0.0000000000
     25655       452  TIP3      H1            -15.7060211015      -25.5794874989       29.7750641924  TIP3      252             0.0000000000
     25656       452  TIP3      H2            -14.3780110178      -24.9859377765       29.9195327595  TIP3      252             0.0000000000
     25657       453  TIP3      OH2           -18.6769210709      -31.5532712030       25.6550426195  TIP3      253             0.0000000000
     25658       453  TIP3      H1            -18.9740070734      -30.6696736260       25.9078288750  TIP3      253             0.0000000000
     25659       453  TIP3      H2            -19.4763623383      -31.8784942020       25.2186159224  TIP3      253             0.0000000000
     25660       454  TIP3      OH2           -18.2043732419      -28.9118404783       28.1205111326  TIP3      254             0.0000000000
     25661       454  TIP3      H1            -17.7466042771      -29.7670463063       28.2844134769  TIP3      254             0.0000000000
     25662       454  TIP3      H2            -17.5939025334      -28.4312269889       27.5446217165  TIP3      254             0.0000000000
     25663       455  TIP3      OH2           -10.3407257710      -27.1130915304       30.9966533882  TIP3      255             0.0000000000
     25664       455  TIP3      H1             -9.8778454627      -27.3930124079       30.1962847590  TIP3      255             0.0000000000
     25665       455  TIP3      H2             -9.6061499051      -26.7156573105       31.5113394843  TIP3      255             0.0000000000
     25666       456  TIP3      OH2            -1.6188156321      -35.1978712732       30.8682443907  TIP3      256             0.0000000000
     25667       456  TIP3      H1             -1.5362176177      -34.4791476977       31.5328815229  TIP3      256             0.0000000000
     25668       456  TIP3      H2             -0.8639555311      -34.9657061277       30.2991689401  TIP3      256             0.0000000000
     25669       457  TIP3      OH2            -6.8088868018      -32.1093589214       31.3238185031  TIP3      257             0.0000000000
     25670       457  TIP3      H1             -6.6378894015      -33.0611558334       31.4408832482  TIP3      257             0.0000000000
     25671       457  TIP3      H2             -6.9442238208      -32.1078160237       30.3537464234  TIP3      257             0.0000000000
     25672       458  TIP3      OH2           -13.8768634270      -34.2851123776       28.0288368034  TIP3      258             0.0000000000
     25673       458  TIP3      H1            -13.6678833333      -33.4835736425       27.5047110746  TIP3      258             0.0000000000
     25674       458  TIP3      H2            -14.2412361121      -34.8778655970       27.3441907521  TIP3      258             0.0000000000
     25675       459  TIP3      OH2            -6.1892534633      -34.0759378166       26.5820806550  TIP3      259             0.0000000000
     25676       459  TIP3      H1             -5.7425459849      -34.3214251391       27.4230012343  TIP3      259             0.0000000000
     25677       459  TIP3      H2             -5.5580785791      -33.4160337354       26.2585772888  TIP3      259             0.0000000000
     25678       460  TIP3      OH2           -17.3695879635      -31.5308412087       28.9380112673  TIP3      260             0.0000000000
     25679       460  TIP3      H1            -16.7728227182      -31.9936790627       29.5574454839  TIP3      260             0.0000000000
     25680       460  TIP3      H2            -17.1793962625      -32.0192536959       28.1141425367  TIP3      260             0.0000000000
     25681       461  TIP3      OH2           -12.5483761493      -30.1948810366       28.4338685829  TIP3      261             0.0000000000
     25682       461  TIP3      H1            -11.7125995615      -30.6296019882       28.6845764674  TIP3      261             0.0000000000
     25683       461  TIP3      H2            -12.9048444994      -30.8600751265       27.8088841445  TIP3      261             0.0000000000
     25684       462  TIP3      OH2            -1.4282009663      -33.7550709659       33.2952561395  TIP3      262             0.0000000000
     25685       462  TIP3      H1             -1.9416643406      -32.9193503123       33.2625049038  TIP3      262             0.0000000000
     25686       462  TIP3      H2             -1.4736992288      -33.9733074090       34.2445133929  TIP3      262             0.0000000000
     25687       463  TIP3      OH2           -15.0072622771      -35.1580167019       32.2705946571  TIP3      263             0.0000000000
     25688       463  TIP3      H1            -15.3089407257      -34.5337246169       31.5732153798  TIP3      263             0.0000000000
     25689       463  TIP3      H2            -15.7493788019      -35.0940016567       32.9135599527  TIP3      263             0.0000000000
     25690       464  TIP3      OH2           -12.8356868384      -27.4525783020       32.0028911192  TIP3      264             0.0000000000
     25691       464  TIP3      H1            -13.2932980357      -26.6527096804       32.3463757407  TIP3      264             0.0000000000
     25692       464  TIP3      H2            -12.0754323410      -27.0544229889       31.5339029617  TIP3      264             0.0000000000
     25693       465  TIP3      OH2            -4.5176059421      -34.0990237491       28.6503453967  TIP3      265             0.0000000000
     25694       465  TIP3      H1             -4.5761926557      -34.9556482940       29.1011824288  TIP3      265             0.0000000000
     25695       465  TIP3      H2             -3.7039832342      -33.7558385220       29.0633561169  TIP3      265             0.0000000000
     25696       466  TIP3      OH2           -15.3092113393      -33.2947882577       30.1162681730  TIP3      266             0.0000000000
     25697       466  TIP3      H1            -14.6529578494      -32.7123258240       30.5750145373  TIP3      266             0.0000000000
     25698       466  TIP3      H2            -14.8330478829      -33.5639543987       29.2975156529  TIP3      266             0.0000000000
     25699       467  TIP3      OH2           -14.0081620395      -25.3750281413       33.1743936357  TIP3      267             0.0000000000
     25700       467  TIP3      H1            -14.2141583192      -24.6139007990       32.6125240761  TIP3      267             0.0000000000
     25701       467  TIP3      H2            -14.8616533222      -25.5051363792       33.6502996871  TIP3      267             0.0000000000
     25702       468  TIP3      OH2           -18.1376064474      -26.0280126921       24.0291577363  TIP3      268             0.0000000000
     25703       468  TIP3      H1            -18.2487877093      -25.6417492321       23.1416499839  TIP3      268             0.0000000000
     25704       468  TIP3      H2            -17.6282510697      -25.3377510623       24.4840388914  TIP3      268             0.0000000000
     25705       469  TIP3      OH2            -4.0209565406      -36.0806858395       32.4147061898  TIP3      269             0.0000000000
     25706       469  TIP3      H1             -4.7825488423      -35.5993722588       32.0476224345  TIP3      269             0.0000000000
     25707       469  TIP3      H2             -3.4846192403      -36.1919776243       31.6010527988  TIP3      269             0.0000000000
     25708       470  TIP3      OH2           -11.0883050999      -37.2893872611       29.2454295694  TIP3      270             0.0000000000
     25709       470  TIP3      H1            -11.0190598766      -38.1610757937       29.6933978390  TIP3      270             0.0000000000
     25710       470  TIP3      H2            -11.6694617347      -36.7984572516       29.8687613406  TIP3      270             0.0000000000
     25711       471  TIP3      OH2            -3.3545450958      -25.9344959245       34.6650770982  TIP3      271             0.0000000000
     25712       471  TIP3      H1             -3.1994590502      -26.6201650916       33.9749361980  TIP3      271             0.0000000000
     25713       471  TIP3      H2             -3.2730552811      -25.1204020541       34.1295705278  TIP3      271             0.0000000000
     25714       472  TIP3      OH2            -8.8914953501      -29.4113856701       24.0182818706  TIP3      272             0.0000000000
     25715       472  TIP3      H1             -9.4635986743      -28.8723904846       23.4395627717  TIP3      272             0.0000000000
     25716       472  TIP3      H2             -8.0442433800      -29.4015983544       23.5309304971  TIP3      272             0.0000000000
     25717       473  TIP3      OH2            -8.3430202839      -30.7259430935       21.4147272695  TIP3      273             0.0000000000
     25718       473  TIP3      H1             -7.5389971940      -30.3381402446       21.8117801948  TIP3      273             0.0000000000
     25719       473  TIP3      H2             -7.9905223554      -31.5576274265       21.0805400202  TIP3      273             0.0000000000
     25720       474  TIP3      OH2            -1.5122917833      -29.5660973867       32.4709620371  TIP3      274             0.0000000000
     25721       474  TIP3      H1             -2.0019366400      -28.7346073766       32.6246640642  TIP3      274             0.0000000000
     25722       474  TIP3      H2             -0.9592918168      -29.2815342748       31.7127797157  TIP3      274             0.0000000000
     25723       475  TIP3      OH2            -5.1589823254      -29.1080433696       25.2216762359  TIP3      275             0.0000000000
     25724       475  TIP3      H1             -5.8596558221      -28.8666221212       25.8701227345  TIP3      275             0.0000000000
     25725       475  TIP3      H2             -4.5269880463      -29.6024214619       25.7980985655  TIP3      275             0.0000000000
     25726       476  TIP3      OH2            -5.6832335487      -30.8972418958       34.5425964119  TIP3      276             0.0000000000
     25727       476  TIP3      H1             -5.7272373117      -29.9407098259       34.6900159738  TIP3      276             0.0000000000
     25728       476  TIP3      H2             -6.3958512060      -31.0033068974       33.8867581411  TIP3      276             0.0000000000
     25729       477  TIP3      OH2           -13.9211648883      -28.3676946009       27.0024873215  TIP3      277             0.0000000000
     25730       477  TIP3      H1            -14.0349454619      -28.8039146772       26.1382757297  TIP3      277             0.0000000000
     25731       477  TIP3      H2            -13.3797400552      -29.0217634486       27.4901929587  TIP3      277             0.0000000000
     25732       478  TIP3      OH2           -12.4108681850      -25.1758216405       29.7140405835  TIP3      278             0.0000000000
     25733       478  TIP3      H1            -12.2485925880      -24.9661480623       28.7729028945  TIP3      278             0.0000000000
     25734       478  TIP3      H2            -11.6100445029      -25.6397213695       29.9941419002  TIP3      278             0.0000000000
     25735       479  TIP3      OH2           -13.7934288576      -29.5709755655       30.7882730751  TIP3      279             0.0000000000
     25736       479  TIP3      H1            -13.3460421432      -29.5330404367       29.9160159462  TIP3      279             0.0000000000
     25737       479  TIP3      H2            -13.3690823973      -28.8326929727       31.2850216098  TIP3      279             0.0000000000
     25738       480  TIP3      OH2            -6.6789113797      -23.9689393264       31.4853316628  TIP3      280             0.0000000000
     25739       480  TIP3      H1             -7.1051410604      -23.3419403826       32.0813927808  TIP3      280             0.0000000000
     25740       480  TIP3      H2             -7.0353299943      -24.8255121683       31.7777546843  TIP3      280             0.0000000000
     25741       481  TIP3      OH2           -12.4001622573      -25.0594051954       35.2906863907  TIP3      281             0.0000000000
     25742       481  TIP3      H1            -13.0875211418      -24.5443904997       35.7712997236  TIP3      281             0.0000000000
     25743       481  TIP3      H2            -12.8374194753      -25.1656766594       34.4145644526  TIP3      281             0.0000000000
     25744       482  TIP3      OH2            -6.3266124793      -29.7651732349       22.9203022874  TIP3      282             0.0000000000
     25745       482  TIP3      H1             -5.8093084321      -29.4986044738       23.7188934313  TIP3      282             0.0000000000
     25746       482  TIP3      H2             -5.8810471985      -29.1739311690       22.2627264879  TIP3      282             0.0000000000
     25747       483  TIP3      OH2           -16.0029143610      -28.2705600143       34.3008100336  TIP3      283             0.0000000000
     25748       483  TIP3      H1            -15.8628581891      -27.6210452368       35.0129221528  TIP3      283             0.0000000000
     25749       483  TIP3      H2            -16.6399680619      -28.8755522069       34.7207908770  TIP3      283             0.0000000000
     25750       484  TIP3      OH2            -9.0678369566      -22.6960076723       26.5835553291  TIP3      284             0.0000000000
     25751       484  TIP3      H1             -8.4948205058      -21.8885626628       26.6530754514  TIP3      284             0.0000000000
     25752       484  TIP3      H2             -9.1523101192      -22.7545821504       25.6289051146  TIP3      284             0.0000000000
     25753       485  TIP3      OH2           -14.1839133021      -23.2734421123       36.2876510827  TIP3      285             0.0000000000
     25754       485  TIP3      H1            -14.3221827416      -22.9748138243       35.3605070126  TIP3      285             0.0000000000
     25755       485  TIP3      H2            -15.1146738942      -23.4704644405       36.5375285695  TIP3      285             0.0000000000
     25756       486  TIP3      OH2            -2.8010460097      -37.4900300651       23.0725821422  TIP3      286             0.0000000000
     25757       486  TIP3      H1             -3.5490530313      -37.6136251647       23.6815754187  TIP3      286             0.0000000000
     25758       486  TIP3      H2             -3.0950994982      -36.6798300025       22.6465042740  TIP3      286             0.0000000000
     25759       487  TIP3      OH2           -14.9230464129      -29.3169264518       24.3675252465  TIP3      287             0.0000000000
     25760       487  TIP3      H1            -15.6180719125      -28.6629277014       24.5157513016  TIP3      287             0.0000000000
     25761       487  TIP3      H2            -15.4286347137      -30.1209051757       24.1697417615  TIP3      287             0.0000000000
     25762       488  TIP3      OH2           -18.4860305510      -26.5136326259       33.6539853932  TIP3      288             0.0000000000
     25763       488  TIP3      H1            -18.9439732205      -26.5904118603       32.8001150513  TIP3      288             0.0000000000
     25764       488  TIP3      H2            -18.0559769882      -27.3874372378       33.7034373452  TIP3      288             0.0000000000
     25765       489  TIP3      OH2           -18.5688671324      -24.1208930463       30.3990301531  TIP3      289             0.0000000000
     25766       489  TIP3      H1            -17.6019818618      -24.1219566610       30.3829959297  TIP3      289             0.0000000000
     25767       489  TIP3      H2            -18.7540897348      -23.3311902526       30.9133911977  TIP3      289             0.0000000000
     25768       490  TIP3      OH2            -0.8190677393      -23.4784199144       36.0652614328  TIP3      290             0.0000000000
     25769       490  TIP3      H1             -0.8942836702      -24.4395415307       35.9417533165  TIP3      290             0.0000000000
     25770       490  TIP3      H2             -1.6805205137      -23.3202565955       36.5214156474  TIP3      290             0.0000000000
     25771       491  TIP3      OH2           -10.0204913517      -23.7394096393       35.2657593973  TIP3      291             0.0000000000
     25772       491  TIP3      H1            -10.0643955922      -22.8605387265       35.6910030784  TIP3      291             0.0000000000
     25773       491  TIP3      H2            -10.9406966591      -24.0800836638       35.2968436667  TIP3      291             0.0000000000
     25774       492  TIP3      OH2           -15.7347400724      -21.2746223275       26.7885960746  TIP3      292             0.0000000000
     25775       492  TIP3      H1            -15.3039186308      -21.4320999220       27.6636638699  TIP3      292             0.0000000000
     25776       492  TIP3      H2            -16.5900949259      -21.7200656072       26.9292296896  TIP3      292             0.0000000000
     25777       493  TIP3      OH2            -3.9629616382      -31.8028452190       36.5513429775  TIP3      293             0.0000000000
     25778       493  TIP3      H1             -4.4087055357      -31.4900838096       35.7377621106  TIP3      293             0.0000000000
     25779       493  TIP3      H2             -3.9562652928      -32.7488176149       36.3587926560  TIP3      293             0.0000000000
     25780       494  TIP3      OH2           -16.2784740523      -25.3230473660       34.5349833478  TIP3      294             0.0000000000
     25781       494  TIP3      H1            -16.3173203190      -25.6696116395       35.4564484166  TIP3      294             0.0000000000
     25782       494  TIP3      H2            -17.0937601490      -25.7200634593       34.1566734909  TIP3      294             0.0000000000
     25783       495  TIP3      OH2           -13.2924816102      -36.2345031935       30.5680841726  TIP3      295             0.0000000000
     25784       495  TIP3      H1            -14.0469710079      -35.9846373615       29.9975701858  TIP3      295             0.0000000000
     25785       495  TIP3      H2            -13.6309322646      -35.8338275872       31.4083569674  TIP3      295             0.0000000000
     25786       496  TIP3      OH2            -9.5703109458      -36.5499826596       34.6478656787  TIP3      296             0.0000000000
     25787       496  TIP3      H1             -9.2424374592      -37.4356661603       34.3863173201  TIP3      296             0.0000000000
     25788       496  TIP3      H2            -10.4050419809      -36.5379650564       34.1582552293  TIP3      296             0.0000000000
     25789       497  TIP3      OH2            -5.7544386499      -33.6913329364       34.8833521580  TIP3      297             0.0000000000
     25790       497  TIP3      H1             -6.4965137410      -33.8619743514       35.5121455451  TIP3      297             0.0000000000
     25791       497  TIP3      H2             -5.9508376981      -32.7642631381       34.6545976292  TIP3      297             0.0000000000
     25792       498  TIP3      OH2            -4.7792665804      -28.6905160799       21.1338981019  TIP3      298             0.0000000000
     25793       498  TIP3      H1             -5.0659761731      -29.0257733581       20.2641331666  TIP3      298             0.0000000000
     25794       498  TIP3      H2             -3.8527308818      -28.4543413305       20.9156820944  TIP3      298             0.0000000000
     25795       499  TIP3      OH2            -9.2757021437      -34.9972484408       21.5929485255  TIP3      299             0.0000000000
     25796       499  TIP3      H1             -9.9256231101      -35.2865285019       22.2658644315  TIP3      299             0.0000000000
     25797       499  TIP3      H2             -9.5871335864      -35.4172258427       20.7819771215  TIP3      299             0.0000000000
     25798       500  TIP3      OH2           -13.5903728297      -32.0296871517       31.7661183054  TIP3      300             0.0000000000
     25799       500  TIP3      H1            -14.1444012289      -31.8273931942       32.5370725617  TIP3      300             0.0000000000
     25800       500  TIP3      H2            -13.6625021670      -31.1567246800       31.3111370716  TIP3      300             0.0000000000
     25801       501  TIP3      OH2           -13.6936575984      -31.9921163326       26.5861989995  TIP3      301             0.0000000000
     25802       501  TIP3      H1            -14.6457827327      -32.2477658164       26.5720560659  TIP3      301             0.0000000000
     25803       501  TIP3      H2            -13.3874610846      -32.2894316360       25.6932919492  TIP3      301             0.0000000000
     25804       502  TIP3      OH2            -7.9434753980      -31.4723587534       25.4639185794  TIP3      302             0.0000000000
     25805       502  TIP3      H1             -8.4445942193      -30.7006437736       25.1037596554  TIP3      302             0.0000000000
     25806       502  TIP3      H2             -7.4487902568      -31.7211110981       24.6750315058  TIP3      302             0.0000000000
     25807       503  TIP3      OH2            -9.2126090562      -30.8711844906       37.0532269086  TIP3      303             0.0000000000
     25808       503  TIP3      H1             -9.6887218861      -31.7236011344       36.9474238542  TIP3      303             0.0000000000
     25809       503  TIP3      H2             -8.4024856403      -31.1688410121       37.4924176367  TIP3      303             0.0000000000
     25810       504  TIP3      OH2            -7.1821172855      -32.1432479014       28.5474879378  TIP3      304             0.0000000000
     25811       504  TIP3      H1             -7.2849283256      -31.4611069277       27.8648968605  TIP3      304             0.0000000000
     25812       504  TIP3      H2             -7.0413167930      -32.9312299107       27.9974450494  TIP3      304             0.0000000000
     25813       505  TIP3      OH2           -16.4800088996      -31.8562404491       33.1605944413  TIP3      305             0.0000000000
     25814       505  TIP3      H1            -15.7862875838      -31.4651585632       33.7358612871  TIP3      305             0.0000000000
     25815       505  TIP3      H2            -16.5533901580      -32.7618793468       33.5139029970  TIP3      305             0.0000000000
     25816       506  TIP3      OH2           -19.0855752839      -34.4632977153       27.4871096184  TIP3      306             0.0000000000
     25817       506  TIP3      H1            -18.3804428584      -34.4860918101       28.1558957301  TIP3      306             0.0000000000
     25818       506  TIP3      H2            -18.6571494839      -34.8255845065       26.6958672046  TIP3      306             0.0000000000
     25819       507  TIP3      OH2           -18.2448512719      -34.1376161843       22.8813020221  TIP3      307             0.0000000000
     25820       507  TIP3      H1            -17.4754706632      -33.6739619918       22.5172161906  TIP3      307             0.0000000000
     25821       507  TIP3      H2            -18.8041406631      -33.3826787503       23.1669273118  TIP3      307             0.0000000000
     25822       508  TIP3      OH2            -8.2560334906      -30.2542535644       32.6299636558  TIP3      308             0.0000000000
     25823       508  TIP3      H1             -7.6099851357      -30.8210152011       32.1534888107  TIP3      308             0.0000000000
     25824       508  TIP3      H2             -8.5552243809      -30.8998071517       33.3158296251  TIP3      308             0.0000000000
     25825       509  TIP3      OH2           -10.9403367510      -34.4037053677       27.5970422721  TIP3      309             0.0000000000
     25826       509  TIP3      H1            -11.8486229840      -34.7178876510       27.7298812301  TIP3      309             0.0000000000
     25827       509  TIP3      H2            -10.5491068906      -34.6489861644       28.4632022421  TIP3      309             0.0000000000
     25828       510  TIP3      OH2           -16.2953030791      -32.7994170811       26.5277434967  TIP3      310             0.0000000000
     25829       510  TIP3      H1            -17.0936017594      -32.4947882937       26.0353017208  TIP3      310             0.0000000000
     25830       510  TIP3      H2            -15.9882949326      -33.5874451105       26.0194392616  TIP3      310             0.0000000000
     25831       511  TIP3      OH2           -12.8995303027      -32.8512101016       24.2217543306  TIP3      311             0.0000000000
     25832       511  TIP3      H1            -11.9629537101      -32.7273813347       24.4907789365  TIP3      311             0.0000000000
     25833       511  TIP3      H2            -13.0147090105      -32.1411139599       23.5797463058  TIP3      311             0.0000000000
     25834       512  TIP3      OH2            -6.5550915139      -35.0933537852       30.8440233572  TIP3      312             0.0000000000
     25835       512  TIP3      H1             -7.2664608194      -35.1069841198       31.5105166686  TIP3      312             0.0000000000
     25836       512  TIP3      H2             -6.8862532018      -35.6488101941       30.1213810834  TIP3      312             0.0000000000
     25837       513  TIP3      OH2           -14.4123239406      -30.8066769289       21.5460687119  TIP3      313             0.0000000000
     25838       513  TIP3      H1            -15.1136186050      -31.4421402609       21.3117970718  TIP3      313             0.0000000000
     25839       513  TIP3      H2            -13.5848518603      -31.1747662174       21.2123565334  TIP3      313             0.0000000000
     25840       514  TIP3      OH2            -3.7434404680      -19.3523397032       37.2453534970  TIP3      314             0.0000000000
     25841       514  TIP3      H1             -3.3289545457      -19.3792891375       36.3576204469  TIP3      314             0.0000000000
     25842       514  TIP3      H2             -2.9705467759      -19.0997665891       37.7774201738  TIP3      314             0.0000000000
     25843       515  TIP3      OH2           -16.1312176380      -26.8253138801       36.9089707806  TIP3      315             0.0000000000
     25844       515  TIP3      H1            -15.3081020228      -26.8032870851       37.4360922341  TIP3      315             0.0000000000
     25845       515  TIP3      H2            -16.7837072839      -27.1685165116       37.5469496840  TIP3      315             0.0000000000
     25846       516  TIP3      OH2            -9.9382595320      -31.4921193199       29.2653215150  TIP3      316             0.0000000000
     25847       516  TIP3      H1             -9.1872209475      -31.9031605807       28.7997416988  TIP3      316             0.0000000000
     25848       516  TIP3      H2            -10.0257672435      -32.1085639673       30.0203568630  TIP3      316             0.0000000000
     25849       517  TIP3      OH2           -14.8618834143      -35.2043947136       25.6488187506  TIP3      317             0.0000000000
     25850       517  TIP3      H1            -15.3155551026      -35.9953696538       26.0036764337  TIP3      317             0.0000000000
     25851       517  TIP3      H2            -14.0885038372      -35.5899191106       25.2061696957  TIP3      317             0.0000000000
     25852       518  TIP3      OH2           -10.8445333723      -33.0445713278       31.7712775655  TIP3      318             0.0000000000
     25853       518  TIP3      H1            -11.6579267873      -32.5173990149       31.6869296956  TIP3      318             0.0000000000
     25854       518  TIP3      H2            -10.5776815492      -32.7666791119       32.6580928586  TIP3      318             0.0000000000
     25855       519  TIP3      OH2           -11.0581206224      -27.4846948855       23.5574356810  TIP3      319             0.0000000000
     25856       519  TIP3      H1            -11.1607792081      -28.2146467482       24.1805434086  TIP3      319             0.0000000000
     25857       519  TIP3      H2            -11.0103956051      -26.7307795856       24.1718149888  TIP3      319             0.0000000000
     25858       520  TIP3      OH2            -3.1910406681      -27.4405373977       32.4988038697  TIP3      320             0.0000000000
     25859       520  TIP3      H1             -2.7255722063      -26.9285151940       31.7961105093  TIP3      320             0.0000000000
     25860       520  TIP3      H2             -4.0381862422      -27.6517632699       32.0554265309  TIP3      320             0.0000000000
     25861       521  TIP3      OH2            -6.7831156254      -33.9317250072       20.8961892069  TIP3      321             0.0000000000
     25862       521  TIP3      H1             -7.6719786957      -34.3235680991       20.9889837682  TIP3      321             0.0000000000
     25863       521  TIP3      H2             -6.6590651348      -33.5407644757       21.7810039263  TIP3      321             0.0000000000
     25864       522  TIP3      OH2            -9.5485819642      -26.8188449286       34.8641910829  TIP3      322             0.0000000000
     25865       522  TIP3      H1             -9.9909480194      -27.5332260473       35.3431738172  TIP3      322             0.0000000000
     25866       522  TIP3      H2             -9.7580528814      -26.0214069545       35.3715806492  TIP3      322             0.0000000000
     25867       523  TIP3      OH2            -6.1183348108      -32.4886704107       23.2500959446  TIP3      323             0.0000000000
     25868       523  TIP3      H1             -5.3081402669      -32.5259594313       23.8071627341  TIP3      323             0.0000000000
     25869       523  TIP3      H2             -6.1426316073      -31.5226929830       23.0773645067  TIP3      323             0.0000000000
     25870       524  TIP3      OH2           -15.4571587879      -27.4303540316       29.2822731210  TIP3      324             0.0000000000
     25871       524  TIP3      H1            -14.8494404909      -27.6140322519       28.5483948978  TIP3      324             0.0000000000
     25872       524  TIP3      H2            -15.3243752813      -28.1950070957       29.8668199299  TIP3      324             0.0000000000
     25873       525  TIP3      OH2           -18.6518866415      -29.3563728648       34.9400210205  TIP3      325             0.0000000000
     25874       525  TIP3      H1            -18.8530300781      -30.0525441436       35.5980559699  TIP3      325             0.0000000000
     25875       525  TIP3      H2            -19.1389797667      -29.6850216684       34.1537679160  TIP3      325             0.0000000000
     25876       526  TIP3      OH2           -11.4938019258      -29.5058761389       36.7829324497  TIP3      326             0.0000000000
     25877       526  TIP3      H1            -11.8064787301      -30.2464883270       36.2235196830  TIP3      326             0.0000000000
     25878       526  TIP3      H2            -10.5530244760      -29.7890824796       36.8312512725  TIP3      326             0.0000000000
     25879       527  TIP3      OH2            -6.6629268926      -24.5259881928       35.0868808212  TIP3      327             0.0000000000
     25880       527  TIP3      H1             -7.3932739656      -24.3074098766       34.4869333310  TIP3      327             0.0000000000
     25881       527  TIP3      H2             -6.9436687350      -24.0468498997       35.8953798189  TIP3      327             0.0000000000
     25882       528  TIP3      OH2            -1.2699233512      -31.9478625853       23.1691710434  TIP3      328             0.0000000000
     25883       528  TIP3      H1             -1.9457597019      -32.2109095422       22.5362074448  TIP3      328             0.0000000000
     25884       528  TIP3      H2             -1.2083099706      -30.9748534611       23.0003410837  TIP3      328             0.0000000000
     25885       529  TIP3      OH2            -1.0221025664      -26.3603626308       36.0731163307  TIP3      329             0.0000000000
     25886       529  TIP3      H1             -1.9763870201      -26.2025494129       35.8980409064  TIP3      329             0.0000000000
     25887       529  TIP3      H2             -0.6808605032      -26.5021409643       35.1626783187  TIP3      329             0.0000000000
     25888       530  TIP3      OH2            -2.4397198325      -23.7419201502       23.5469714504  TIP3      330             0.0000000000
     25889       530  TIP3      H1             -2.9064963032      -24.5528782560       23.3222363365  TIP3      330             0.0000000000
     25890       530  TIP3      H2             -2.5666960002      -23.1426738685       22.7973107155  TIP3      330             0.0000000000
     25891       531  TIP3      OH2            -5.4696108622      -28.5948071650       30.8469722604  TIP3      331             0.0000000000
     25892       531  TIP3      H1             -6.4093446414      -28.7805130560       30.6957353472  TIP3      331             0.0000000000
     25893       531  TIP3      H2             -5.0625949954      -29.2177683328       30.2239717987  TIP3      331             0.0000000000
     25894       532  TIP3      OH2           -13.1539249441      -24.2136060878       26.9703441535  TIP3      332             0.0000000000
     25895       532  TIP3      H1            -12.6593720048      -23.4468985855       26.6280555446  TIP3      332             0.0000000000
     25896       532  TIP3      H2            -14.0407200815      -23.9974016611       26.6431406815  TIP3      332             0.0000000000
     25897       533  TIP3      OH2           -17.1244225869      -29.2412806006       21.7175813201  TIP3      333             0.0000000000
     25898       533  TIP3      H1            -17.2854258569      -28.3397006401       21.4173344771  TIP3      333             0.0000000000
     25899       533  TIP3      H2            -18.0504715160      -29.5116373739       21.8990504998  TIP3      333             0.0000000000
     25900       534  TIP3      OH2           -11.5348064525      -26.4004536896       26.2422488047  TIP3      334             0.0000000000
     25901       534  TIP3      H1            -11.9410014405      -25.5163600077       26.2152558250  TIP3      334             0.0000000000
     25902       534  TIP3      H2            -12.0181347992      -26.7966366429       26.9810859304  TIP3      334             0.0000000000
     25903       535  TIP3      OH2           -11.1350587776      -22.3148729009       33.0617576993  TIP3      335             0.0000000000
     25904       535  TIP3      H1            -10.5428737007      -21.6688247694       32.6139229018  TIP3      335             0.0000000000
     25905       535  TIP3      H2            -10.5527999794      -22.6695525547       33.7634477711  TIP3      335             0.0000000000
     25906       536  TIP3      OH2           -13.3302599994      -21.9320888082       25.4715797272  TIP3      336             0.0000000000
     25907       536  TIP3      H1            -14.1506001937      -21.5403620993       25.8466275309  TIP3      336             0.0000000000
     25908       536  TIP3      H2            -12.6561957869      -21.3086975634       25.8481529727  TIP3      336             0.0000000000
     25909       537  TIP3      OH2            -8.2370461439      -26.4050652762       32.4841918145  TIP3      337             0.0000000000
     25910       537  TIP3      H1             -8.6897476187      -26.6509797528       33.3363856363  TIP3      337             0.0000000000
     25911       537  TIP3      H2             -7.7856403543      -27.2371637411       32.2826111430  TIP3      337             0.0000000000
     25912       538  TIP3      OH2            -4.8249036994      -21.9799025511       34.6676046285  TIP3      338             0.0000000000
     25913       538  TIP3      H1             -5.7300166427      -22.3213312295       34.5037165097  TIP3      338             0.0000000000
     25914       538  TIP3      H2             -4.7679991936      -21.2479005543       34.0094511196  TIP3      338             0.0000000000
     25915       539  TIP3      OH2            -1.0098129818      -20.4444405803       21.6154750068  TIP3      339             0.0000000000
     25916       539  TIP3      H1             -0.8925824233      -19.7395127432       20.9730250346  TIP3      339             0.0000000000
     25917       539  TIP3      H2             -1.6611648825      -20.0133270821       22.1973199858  TIP3      339             0.0000000000
     25918       540  TIP3      OH2           -16.9911954508      -34.5969378720       34.0321866770  TIP3      340             0.0000000000
     25919       540  TIP3      H1            -17.9173701923      -34.2977047378       33.9940397369  TIP3      340             0.0000000000
     25920       540  TIP3      H2            -17.0603308890      -35.4208144861       34.5393057471  TIP3      340             0.0000000000
     25921       541  TIP3      OH2            -4.6843650773      -26.7377274680       23.9966680474  TIP3      341             0.0000000000
     25922       541  TIP3      H1             -4.8267201890      -27.6349672584       24.3549830406  TIP3      341             0.0000000000
     25923       541  TIP3      H2             -3.7101147157      -26.6774920008       24.0400690365  TIP3      341             0.0000000000
     25924       542  TIP3      OH2           -17.0845180019      -22.6345338085       32.5097822586  TIP3      342             0.0000000000
     25925       542  TIP3      H1            -16.4982713856      -23.3964141090       32.6588390444  TIP3      342             0.0000000000
     25926       542  TIP3      H2            -17.0857527565      -22.2552868728       33.3960477386  TIP3      342             0.0000000000
     25927       543  TIP3      OH2           -12.5670884282      -24.6819543651       22.9891102501  TIP3      343             0.0000000000
     25928       543  TIP3      H1            -11.6586648665      -24.8872540500       22.7114883723  TIP3      343             0.0000000000
     25929       543  TIP3      H2            -12.5411594047      -23.7042842717       22.9660557561  TIP3      343             0.0000000000
     25930       544  TIP3      OH2            -7.9161555430      -34.9360875664       33.3077344380  TIP3      344             0.0000000000
     25931       544  TIP3      H1             -7.2150713049      -34.8612837328       33.9781901646  TIP3      344             0.0000000000
     25932       544  TIP3      H2             -8.5669988337      -35.4696458910       33.8143165167  TIP3      344             0.0000000000
     25933       545  TIP3      OH2            -7.4562382397      -35.3326334652       24.6368644079  TIP3      345             0.0000000000
     25934       545  TIP3      H1             -7.6405924053      -34.7170869966       23.9155536611  TIP3      345             0.0000000000
     25935       545  TIP3      H2             -6.8776798625      -34.7986312691       25.2435851776  TIP3      345             0.0000000000
     25936       546  TIP3      OH2           -10.3680208464      -33.2506116855       25.1901647282  TIP3      346             0.0000000000
     25937       546  TIP3      H1             -9.4262122974      -33.0323294799       25.2844035874  TIP3      346             0.0000000000
     25938       546  TIP3      H2            -10.5899499909      -33.6164646625       26.0804292696  TIP3      346             0.0000000000
     25939       547  TIP3      OH2            -8.4026371979      -32.3879436915       34.2954071340  TIP3      347             0.0000000000
     25940       547  TIP3      H1             -9.2213757851      -32.1891080045       34.7878731688  TIP3      347             0.0000000000
     25941       547  TIP3      H2             -8.5201817210      -33.3201173566       34.0252687240  TIP3      347             0.0000000000
     25942       548  TIP3      OH2            -9.4875971460      -36.2991691244       25.9015344211  TIP3      348             0.0000000000
     25943       548  TIP3      H1             -9.7008779307      -35.6478767250       26.5988913827  TIP3      348             0.0000000000
     25944       548  TIP3      H2             -8.5907366423      -35.9802025479       25.6298303732  TIP3      348             0.0000000000
     25945       549  TIP3      OH2           -12.9254078694      -21.7947788279       22.8208243305  TIP3      349             0.0000000000
     25946       549  TIP3      H1            -12.4633367335      -20.9793304683       22.5742414989  TIP3      349             0.0000000000
     25947       549  TIP3      H2            -13.0892280418      -21.6840275369       23.7850508165  TIP3      349             0.0000000000
     25948       550  TIP3      OH2            -3.3190626688      -34.5652821372       35.2638456536  TIP3      350             0.0000000000
     25949       550  TIP3      H1             -4.2796758847      -34.4010752831       35.3632968724  TIP3      350             0.0000000000
     25950       550  TIP3      H2             -3.2860634478      -34.7552622553       34.3034408239  TIP3      350             0.0000000000
     25951       551  TIP3      OH2            -4.7297022442      -31.0747050768       29.0658168780  TIP3      351             0.0000000000
     25952       551  TIP3      H1             -5.4659250149      -31.7047259190       29.1506302467  TIP3      351             0.0000000000
     25953       551  TIP3      H2             -4.0356289606      -31.5148441978       29.6040358505  TIP3      351             0.0000000000
     25954       552  TIP3      OH2           -17.1533652186      -31.7888566087       20.7030432857  TIP3      352             0.0000000000
     25955       552  TIP3      H1            -16.8695148766      -30.9533507614       21.1235008189  TIP3      352             0.0000000000
     25956       552  TIP3      H2            -17.7489086296      -31.4377308108       20.0194923546  TIP3      352             0.0000000000
     25957       553  TIP3      OH2            -3.8658899070      -21.3444714442       30.8846548797  TIP3      353             0.0000000000
     25958       553  TIP3      H1             -3.9287251342      -20.6059842874       30.2375300902  TIP3      353             0.0000000000
     25959       553  TIP3      H2             -2.9003094727      -21.3495140589       31.0470719690  TIP3      353             0.0000000000
     25960       554  TIP3      OH2           -16.1363267146      -36.6761812940       29.5973328328  TIP3      354             0.0000000000
     25961       554  TIP3      H1            -16.3124412929      -36.8369525724       28.6571574938  TIP3      354             0.0000000000
     25962       554  TIP3      H2            -16.2781197900      -37.5835547449       29.9400724088  TIP3      354             0.0000000000
     25963       555  TIP3      OH2           -17.6797322379      -23.3297611921       25.8504528020  TIP3      355             0.0000000000
     25964       555  TIP3      H1            -18.4629442468      -22.8342269701       25.5693077690  TIP3      355             0.0000000000
     25965       555  TIP3      H2            -17.0381901358      -22.9885099051       25.2185578252  TIP3      355             0.0000000000
     25966       556  TIP3      OH2           -18.2818144689      -20.8136051931       37.0549537042  TIP3      356             0.0000000000
     25967       556  TIP3      H1            -17.6374511674      -20.9959038921       37.7739688959  TIP3      356             0.0000000000
     25968       556  TIP3      H2            -18.6100580825      -21.7206131110       36.8794029635  TIP3      356             0.0000000000
     25969       557  TIP3      OH2           -13.3708503153      -21.7424470800       38.4928836964  TIP3      357             0.0000000000
     25970       557  TIP3      H1            -12.4900408102      -22.1043598242       38.7232611761  TIP3      357             0.0000000000
     25971       557  TIP3      H2            -13.5111491633      -22.1167598730       37.6049872455  TIP3      357             0.0000000000
     25972       558  TIP3      OH2            -7.1118328520      -23.2421635731       37.4637501929  TIP3      358             0.0000000000
     25973       558  TIP3      H1             -7.4684508193      -24.1151532870       37.7767472047  TIP3      358             0.0000000000
     25974       558  TIP3      H2             -6.2669860840      -23.2411791490       37.9662364551  TIP3      358             0.0000000000
     25975       559  TIP3      OH2           -18.5829491027      -27.0118415587       38.1516926216  TIP3      359             0.0000000000
     25976       559  TIP3      H1            -18.8660387306      -27.9438619834       38.1220250305  TIP3      359             0.0000000000
     25977       559  TIP3      H2            -19.0028447733      -26.6846328633       37.3236768616  TIP3      359             0.0000000000
     25978       560  TIP3      OH2           -11.5970522548      -26.7915055957       37.2228966096  TIP3      360             0.0000000000
     25979       560  TIP3      H1            -11.8468943822      -26.3229019665       36.3944845995  TIP3      360             0.0000000000
     25980       560  TIP3      H2            -11.6686950526      -27.7509689019       36.9940618016  TIP3      360             0.0000000000
     25981       561  TIP3      OH2            -5.8005863466      -27.2592275981       34.9707921016  TIP3      361             0.0000000000
     25982       561  TIP3      H1             -4.9883226139      -26.7195662003       34.9222198489  TIP3      361             0.0000000000
     25983       561  TIP3      H2             -6.4385817698      -26.5341959947       35.1345299369  TIP3      361             0.0000000000
     25984       562  TIP3      OH2           -16.9739200438      -29.9810167575       37.7612660168  TIP3      362             0.0000000000
     25985       562  TIP3      H1            -16.4187803946      -30.7688994890       37.8234709255  TIP3      362             0.0000000000
     25986       562  TIP3      H2            -16.6629189249      -29.4145872056       38.4928660209  TIP3      362             0.0000000000
     25987       563  TIP3      OH2           -14.1736331734      -30.6649259647       34.1662965535  TIP3      363             0.0000000000
     25988       563  TIP3      H1            -14.2967916524      -29.8926097528       34.7300162476  TIP3      363             0.0000000000
     25989       563  TIP3      H2            -13.2013500818      -30.6244983842       34.0465943377  TIP3      363             0.0000000000
     25990       564  TIP3      OH2           -11.3333219754      -30.1474051128       21.0197956582  TIP3      364             0.0000000000
     25991       564  TIP3      H1            -11.5384574666      -30.0532654277       20.0844423459  TIP3      364             0.0000000000
     25992       564  TIP3      H2            -10.4188538022      -30.4936708480       21.0405659203  TIP3      364             0.0000000000
     25993       565  TIP3      OH2            -7.9988376816      -27.9746798148       38.1579833831  TIP3      365             0.0000000000
     25994       565  TIP3      H1             -7.2365007050      -28.1927312143       37.5991773311  TIP3      365             0.0000000000
     25995       565  TIP3      H2             -8.5368215479      -28.7834312489       38.0905012608  TIP3      365             0.0000000000
     25996       566  TIP3      OH2            -2.5082358576      -28.3577424570       19.8271743915  TIP3      366             0.0000000000
     25997       566  TIP3      H1             -2.3242553312      -28.5658705005       18.9029842547  TIP3      366             0.0000000000
     25998       566  TIP3      H2             -2.1360537475      -27.4781602583       19.9228825851  TIP3      366             0.0000000000
     25999       567  TIP3      OH2           -13.6964352566      -34.4798302734       35.7232054774  TIP3      367             0.0000000000
     26000       567  TIP3      H1            -13.0933373801      -35.0458863635       35.2029779933  TIP3      367             0.0000000000
     26001       567  TIP3      H2            -13.3055361529      -33.6271063686       35.4579327426  TIP3      367             0.0000000000
     26002       568  TIP3      OH2           -12.5501597294      -34.9361566439       33.3831866966  TIP3      368             0.0000000000
     26003       568  TIP3      H1            -12.1216437793      -34.2246032068       32.8561196459  TIP3      368             0.0000000000
     26004       568  TIP3      H2            -13.4983594609      -34.6950090796       33.3328447515  TIP3      368             0.0000000000
     26005       569  TIP3      OH2           -11.3999072904      -29.0655201404       33.8549999883  TIP3      369             0.0000000000
     26006       569  TIP3      H1            -10.5899405075      -29.2591346854       33.3655245398  TIP3      369             0.0000000000
     26007       569  TIP3      H2            -11.8774580405      -28.4969476009       33.2298915282  TIP3      369             0.0000000000
     26008       570  TIP3      OH2            -6.5802075912      -31.9660689099       38.5993214201  TIP3      370             0.0000000000
     26009       570  TIP3      H1             -6.2902548873      -32.8906746108       38.6420430836  TIP3      370             0.0000000000
     26010       570  TIP3      H2             -5.7555047378      -31.4744217652       38.7495763636  TIP3      370             0.0000000000
     26011       571  TIP3      OH2            -5.2746226752      -28.8367835298       37.0896837682  TIP3      371             0.0000000000
     26012       571  TIP3      H1             -5.5207761073      -28.3113339963       36.2997503318  TIP3      371             0.0000000000
     26013       571  TIP3      H2             -4.4238657164      -29.1912460539       36.7880445909  TIP3      371             0.0000000000
     26014       572  TIP3      OH2           -14.4234667852      -32.3722907558       37.8343349036  TIP3      372             0.0000000000
     26015       572  TIP3      H1            -15.2775700183      -32.7698237662       37.5582612463  TIP3      372             0.0000000000
     26016       572  TIP3      H2            -13.8508151987      -32.6676129110       37.1140633496  TIP3      372             0.0000000000
     26017       573  TIP3      OH2           -11.7978983315      -37.4265824726       33.3688249426  TIP3      373             0.0000000000
     26018       573  TIP3      H1            -11.9158960702      -36.4511096640       33.4158524489  TIP3      373             0.0000000000
     26019       573  TIP3      H2            -12.6473527941      -37.6235756766       32.9625361411  TIP3      373             0.0000000000
     26020       574  TIP3      OH2           -10.6225316635      -33.4640885536       37.8279171885  TIP3      374             0.0000000000
     26021       574  TIP3      H1            -11.3731988022      -33.5924072920       38.4397570600  TIP3      374             0.0000000000
     26022       574  TIP3      H2            -11.1127142422      -33.3932890585       36.9752475410  TIP3      374             0.0000000000
     26023       575  TIP3      OH2            -7.7633687951      -34.2939697335       36.7054773222  TIP3      375             0.0000000000
     26024       575  TIP3      H1             -8.7151836569      -34.1124524347       36.7671536319  TIP3      375             0.0000000000
     26025       575  TIP3      H2             -7.6631886908      -34.9726544038       37.3890345710  TIP3      375             0.0000000000
     26026       576  TIP3      OH2            -5.4788300189      -35.3418390127       38.6310988718  TIP3      376             0.0000000000
     26027       576  TIP3      H1             -5.8221782385      -36.2674755491       38.5600357044  TIP3      376             0.0000000000
     26028       576  TIP3      H2             -6.0512165166      -34.9975327547       39.3546865031  TIP3      376             0.0000000000
     26029       577  TIP3      OH2           -16.4830887661      -34.1108823891       37.9287531461  TIP3      377             0.0000000000
     26030       577  TIP3      H1            -16.0306572043      -34.7548523067       37.3723935351  TIP3      377             0.0000000000
     26031       577  TIP3      H2            -16.6596535863      -34.6197729330       38.7603828235  TIP3      377             0.0000000000
     26032       578  TIP3      OH2           -11.9552501004      -37.6443908095       36.3089985560  TIP3      378             0.0000000000
     26033       578  TIP3      H1            -12.2035306626      -38.5995923556       36.2277806284  TIP3      378             0.0000000000
     26034       578  TIP3      H2            -11.3371900464      -37.5181379198       35.5745466583  TIP3      378             0.0000000000
     26035       579  TIP3      OH2           -11.3239353600      -36.9828024049       38.9465907095  TIP3      379             0.0000000000
     26036       579  TIP3      H1            -11.3131262884      -37.2920428491       38.0173251192  TIP3      379             0.0000000000
     26037       579  TIP3      H2            -11.8395127080      -36.1743045657       38.8480322422  TIP3      379             0.0000000000
     26038       580  TIP3      OH2           -11.4774229911      -19.2449988760       21.7558914535  TIP3      380             0.0000000000
     26039       580  TIP3      H1            -10.6464180046      -19.2379780798       22.2348002987  TIP3      380             0.0000000000
     26040       580  TIP3      H2            -11.5327419065      -18.3034565349       21.4971159795  TIP3      380             0.0000000000
     26041       581  TIP3      OH2           -19.3952830669      -19.9133738169       26.2037696223  TIP3      381             0.0000000000
     26042       581  TIP3      H1            -20.1389203193      -20.4306129427       25.8293788037  TIP3      381             0.0000000000
     26043       581  TIP3      H2            -19.0493681565      -20.5235599075       26.8883487329  TIP3      381             0.0000000000
     26044       582  TIP3      OH2           -18.6922389742      -21.6268617746       28.0864013988  TIP3      382             0.0000000000
     26045       582  TIP3      H1            -19.3210044712      -22.3494988285       28.2309806573  TIP3      382             0.0000000000
     26046       582  TIP3      H2            -18.4212495048      -21.4348341131       28.9964435877  TIP3      382             0.0000000000
     26047       583  TIP3      OH2            -1.2485664511      -20.4694929934       31.3414270539  TIP3      383             0.0000000000
     26048       583  TIP3      H1             -1.0164562726      -20.3505031246       32.2796467948  TIP3      383             0.0000000000
     26049       583  TIP3      H2             -0.4818945846      -20.0368514290       30.9308749907  TIP3      383             0.0000000000
     26050       584  TIP3      OH2            -1.6375312269      -21.5071137907       34.0219328942  TIP3      384             0.0000000000
     26051       584  TIP3      H1             -1.9092189953      -22.2584656528       33.4488074284  TIP3      384             0.0000000000
     26052       584  TIP3      H2             -1.3935088863      -21.9631622794       34.8544908649  TIP3      384             0.0000000000
     26053       585  TIP3      OH2            -2.9471952119      -25.7063333676       38.8256937481  TIP3      385             0.0000000000
     26054       585  TIP3      H1             -3.8716818191      -25.6176317133       39.1566937963  TIP3      385             0.0000000000
     26055       585  TIP3      H2             -2.5606393959      -24.8662824100       39.1541704531  TIP3      385             0.0000000000
     26056       586  TIP3      OH2            -2.0935429954      -27.0779924485       24.3479387260  TIP3      386             0.0000000000
     26057       586  TIP3      H1             -1.1651838980      -26.7619684929       24.3465121420  TIP3      386             0.0000000000
     26058       586  TIP3      H2             -2.0070525732      -27.9522023249       24.7952458423  TIP3      386             0.0000000000
     26059       587  TIP3      OH2            -1.4877605014      -29.1889351569       26.0194931649  TIP3      387             0.0000000000
     26060       587  TIP3      H1             -2.2126583424      -29.7671145754       26.3515478829  TIP3      387             0.0000000000
     26061       587  TIP3      H2             -0.9138927062      -29.0332213598       26.7943177758  TIP3      387             0.0000000000
     26062       588  TIP3      OH2            -1.7351386335      -26.4016214960       30.5694184276  TIP3      388             0.0000000000
     26063       588  TIP3      H1             -1.0665002173      -27.0974170172       30.3948628773  TIP3      388             0.0000000000
     26064       588  TIP3      H2             -1.2419851280      -25.5805303357       30.3960350615  TIP3      388             0.0000000000
     26065       589  TIP3      OH2            -3.0767734941      -23.6170974885       33.0927900443  TIP3      389             0.0000000000
     26066       589  TIP3      H1             -3.6482284348      -23.0942835884       33.6942361602  TIP3      389             0.0000000000
     26067       589  TIP3      H2             -3.6750903725      -23.7360780359       32.3379634659  TIP3      389             0.0000000000
     26068       590  TIP3      OH2            -1.2099631366      -29.3891650576       22.6052275230  TIP3      390             0.0000000000
     26069       590  TIP3      H1             -1.7251841342      -29.0098756368       21.8848520440  TIP3      390             0.0000000000
     26070       590  TIP3      H2             -0.5408991518      -28.7132192053       22.7656594313  TIP3      390             0.0000000000
     26071       591  TIP3      OH2            -3.5599959988      -30.5773513497       26.7185545682  TIP3      391             0.0000000000
     26072       591  TIP3      H1             -3.7154414842      -31.4861867787       26.4352259030  TIP3      391             0.0000000000
     26073       591  TIP3      H2             -3.8895450690      -30.5882000530       27.6441263633  TIP3      391             0.0000000000
     26074       592  TIP3      OH2           -18.6308296528      -28.3380224826       30.7305304887  TIP3      392             0.0000000000
     26075       592  TIP3      H1            -18.5335065007      -28.5414112851       29.7629472803  TIP3      392             0.0000000000
     26076       592  TIP3      H2            -17.7157601348      -28.5704984062       31.0196027327  TIP3      392             0.0000000000
     26077       593  TIP3      OH2            -2.3811748787      -28.7975840905       36.0947701340  TIP3      393             0.0000000000
     26078       593  TIP3      H1             -1.9744533052      -29.6220495331       36.4421131765  TIP3      393             0.0000000000
     26079       593  TIP3      H2             -1.5954299483      -28.2980162778       35.7874282831  TIP3      393             0.0000000000
     26080       594  TIP3      OH2            -1.4227456769      -31.2016069324       36.9071302876  TIP3      394             0.0000000000
     26081       594  TIP3      H1             -2.3183317950      -31.5859333424       36.7507985626  TIP3      394             0.0000000000
     26082       594  TIP3      H2             -0.8802960399      -32.0253356596       36.9855320776  TIP3      394             0.0000000000
     26083       595  TIP3      OH2            -3.8027225256      -32.7270302980       24.7394143846  TIP3      395             0.0000000000
     26084       595  TIP3      H1             -3.5920643213      -33.6626486806       24.9880256545  TIP3      395             0.0000000000
     26085       595  TIP3      H2             -2.8782826379      -32.4363836409       24.6387270826  TIP3      395             0.0000000000
     26086       596  TIP3      OH2            -2.9683454047      -32.4040141330       30.6778054121  TIP3      396             0.0000000000
     26087       596  TIP3      H1             -1.9888691577      -32.2351666826       30.7476480297  TIP3      396             0.0000000000
     26088       596  TIP3      H2             -3.1736890195      -32.3877011201       31.6281264292  TIP3      396             0.0000000000
     26089       597  TIP3      OH2            -3.1133873392      -31.5659560803       33.3018209149  TIP3      397             0.0000000000
     26090       597  TIP3      H1             -4.0463718373      -31.2781960769       33.4208726743  TIP3      397             0.0000000000
     26091       597  TIP3      H2             -2.6658878812      -30.7567291226       32.9499236907  TIP3      397             0.0000000000
     26092       598  TIP3      OH2           -18.7501373633      -33.4405717487       36.8746948320  TIP3      398             0.0000000000
     26093       598  TIP3      H1            -17.8670700855      -33.6013315266       37.3023815056  TIP3      398             0.0000000000
     26094       598  TIP3      H2            -19.1935437876      -34.2877489739       37.0871775401  TIP3      398             0.0000000000
     26095       599  TIP3      OH2            -0.4161939000      -37.4255214525       38.5816673632  TIP3      399             0.0000000000
     26096       599  TIP3      H1              0.4421535353      -37.5223277909       38.1164129836  TIP3      399             0.0000000000
     26097       599  TIP3      H2             -0.8154584315      -36.7788221856       37.9514325334  TIP3      399             0.0000000000
     26098       600  TIP3      OH2            -3.0021657181      -35.1768668440       25.1349676503  TIP3      400             0.0000000000
     26099       600  TIP3      H1             -2.6248736084      -35.6414025003       25.8998666583  TIP3      400             0.0000000000
     26100       600  TIP3      H2             -3.7775631902      -35.7498118033       24.9452150317  TIP3      400             0.0000000000
     26101       601  TIP3      OH2           -17.8298519019      -34.5667211680       30.0934675226  TIP3      401             0.0000000000
     26102       601  TIP3      H1            -17.5333033419      -35.4672804549       30.3175140092  TIP3      401             0.0000000000
     26103       601  TIP3      H2            -16.9643740688      -34.1261704187       30.0310972994  TIP3      401             0.0000000000
     26104       602  TIP3      OH2           -19.3032830420      -31.7223816996       30.7999391284  TIP3      402             0.0000000000
     26105       602  TIP3      H1            -18.7712573288      -31.9121579763       30.0037146333  TIP3      402             0.0000000000
     26106       602  TIP3      H2            -18.6638635990      -31.1581954508       31.2626153262  TIP3      402             0.0000000000
     26107       603  TIP3      OH2            -1.5990655292      -35.6511161679       37.0610578935  TIP3      403             0.0000000000
     26108       603  TIP3      H1             -2.3730077702      -35.0478822304       37.1260162931  TIP3      403             0.0000000000
     26109       603  TIP3      H2             -1.7642651683      -36.0438105108       36.1695348451  TIP3      403             0.0000000000
     26110       604  TIP3      OH2           -19.0527913042      -35.8239323700       24.9561005502  TIP3      404             0.0000000000
     26111       604  TIP3      H1            -19.9962166141      -35.5597259025       24.9238516263  TIP3      404             0.0000000000
     26112       604  TIP3      H2            -18.7325510668      -35.3479700241       24.1631396287  TIP3      404             0.0000000000
     26113       605  TIP3      OH2           -18.7905586745      -36.6318722145       33.0047678333  TIP3      405             0.0000000000
     26114       605  TIP3      H1            -19.3955929319      -36.5555602288       33.7653342132  TIP3      405             0.0000000000
     26115       605  TIP3      H2            -19.3066457918      -36.1499580563       32.3315404196  TIP3      405             0.0000000000
     26116       606  TIP3      OH2           -16.7831413733      -23.9584344769       37.0900986247  TIP3      406             0.0000000000
     26117       606  TIP3      H1            -17.6486926281      -23.6731057383       36.7631436189  TIP3      406             0.0000000000
     26118       606  TIP3      H2            -16.9858429291      -24.5746742998       37.8051585713  TIP3      406             0.0000000000
     26119       607  TIP3      OH2           -13.8211139846      -22.3758052654       33.7098676258  TIP3      407             0.0000000000
     26120       607  TIP3      H1            -13.8309614339      -21.4591069796       33.3526409022  TIP3      407             0.0000000000
     26121       607  TIP3      H2            -12.8584096910      -22.5324525742       33.6804415392  TIP3      407             0.0000000000
     26122       608  TIP3      OH2            -9.7769584028      -21.1422348473       36.2337990696  TIP3      408             0.0000000000
     26123       608  TIP3      H1             -9.5923219037      -21.4642743421       37.1374332728  TIP3      408             0.0000000000
     26124       608  TIP3      H2             -8.8940836961      -20.7951240479       35.9878883107  TIP3      408             0.0000000000
     26125       609  TIP3      OH2            -7.4888444233      -19.7605674004       35.7249254051  TIP3      409             0.0000000000
     26126       609  TIP3      H1             -6.7146577733      -20.2628961463       35.4544427045  TIP3      409             0.0000000000
     26127       609  TIP3      H2             -7.1724284564      -19.3821943504       36.5750275442  TIP3      409             0.0000000000
     26128       610  TIP3      OH2            -2.0305382110      -36.8666608321       34.6321563495  TIP3      410             0.0000000000
     26129       610  TIP3      H1             -2.8495628250      -36.6559677986       34.1535154726  TIP3      410             0.0000000000
     26130       610  TIP3      H2             -2.2373794999      -37.7977255589       34.8546009800  TIP3      410             0.0000000000
     26131       611  TIP3      OH2           -16.4875387444      -19.4694515031       33.2603256890  TIP3      411             0.0000000000
     26132       611  TIP3      H1            -17.3288328417      -19.0557374973       32.9729454476  TIP3      411             0.0000000000
     26133       611  TIP3      H2            -16.5712543545      -19.4162043324       34.2265683550  TIP3      411             0.0000000000
     26134       612  TIP3      OH2           -13.9597539668      -20.0214716724       32.4178394049  TIP3      412             0.0000000000
     26135       612  TIP3      H1            -14.9122605485      -19.8475695595       32.6203399780  TIP3      412             0.0000000000
     26136       612  TIP3      H2            -13.8608237927      -19.4795000571       31.6121691573  TIP3      412             0.0000000000
     26137       613  TIP3      OH2            -9.6163138735      -20.4017161669       31.8188943291  TIP3      413             0.0000000000
     26138       613  TIP3      H1            -10.1243417177      -19.9664743263       31.0937602887  TIP3      413             0.0000000000
     26139       613  TIP3      H2             -9.2826515974      -19.6193779124       32.3041538683  TIP3      413             0.0000000000
     26140       614  TIP3      OH2            -7.4095209375      -21.7249149460       33.1315961024  TIP3      414             0.0000000000
     26141       614  TIP3      H1             -8.1881352303      -21.2895284784       32.7236093921  TIP3      414             0.0000000000
     26142       614  TIP3      H2             -6.7262505780      -21.0692924704       32.9061304181  TIP3      414             0.0000000000
     26143       615  TIP3      OH2            -4.7588983519      -19.9231105395       32.9293773986  TIP3      415             0.0000000000
     26144       615  TIP3      H1             -4.7875237522      -19.0066483777       32.6120939330  TIP3      415             0.0000000000
     26145       615  TIP3      H2             -4.4541823527      -20.3776414840       32.1096997676  TIP3      415             0.0000000000
     26146       616  TIP3      OH2           -16.8843229857      -21.1046028495       30.2541666719  TIP3      416             0.0000000000
     26147       616  TIP3      H1            -17.0520280738      -21.6625140059       31.0436389073  TIP3      416             0.0000000000
     26148       616  TIP3      H2            -15.9658986743      -21.4046411872       30.0227380268  TIP3      416             0.0000000000
     26149       617  TIP3      OH2           -14.6156693459      -22.1146459292       29.0868960973  TIP3      417             0.0000000000
     26150       617  TIP3      H1            -14.7449984266      -23.0525372999       29.3407393375  TIP3      417             0.0000000000
     26151       617  TIP3      H2            -13.7160979847      -21.9475223849       29.4545152858  TIP3      417             0.0000000000
     26152       618  TIP3      OH2           -12.3118800258      -22.3902663052       30.4513937440  TIP3      418             0.0000000000
     26153       618  TIP3      H1            -11.9871907828      -23.2990629651       30.3665736478  TIP3      418             0.0000000000
     26154       618  TIP3      H2            -12.0943064309      -22.2172002440       31.3805071738  TIP3      418             0.0000000000
     26155       619  TIP3      OH2            -8.9987412754      -35.5593615602       29.1261736466  TIP3      419             0.0000000000
     26156       619  TIP3      H1             -9.5344242288      -36.3740088779       29.1734896640  TIP3      419             0.0000000000
     26157       619  TIP3      H2             -8.2731952112      -35.8300619855       28.5419503104  TIP3      419             0.0000000000
     26158       620  TIP3      OH2            -4.0114346126      -37.0577989494       28.9685973723  TIP3      420             0.0000000000
     26159       620  TIP3      H1             -3.2649531729      -36.8574058657       28.3591443016  TIP3      420             0.0000000000
     26160       620  TIP3      H2             -4.7148718671      -37.2555616681       28.3405470290  TIP3      420             0.0000000000
     26161       621  TIP3      OH2            -2.1051891297      -36.6899935560       27.1419218425  TIP3      421             0.0000000000
     26162       621  TIP3      H1             -1.6461634236      -37.4046893915       26.6892247252  TIP3      421             0.0000000000
     26163       621  TIP3      H2             -1.3747146067      -36.0960205537       27.4458878044  TIP3      421             0.0000000000
     26164       622  TIP3      OH2           -16.5030878323      -37.0344524018       26.6870466563  TIP3      422             0.0000000000
     26165       622  TIP3      H1            -16.9890632288      -36.8221430837       25.8584865418  TIP3      422             0.0000000000
     26166       622  TIP3      H2            -16.6867381684      -37.9930641805       26.7755511224  TIP3      422             0.0000000000
     26167       623  TIP3      OH2           -17.0361700621      -37.3180858636       23.7048827747  TIP3      423             0.0000000000
     26168       623  TIP3      H1            -16.7924134074      -36.5848672981       23.1258845751  TIP3      423             0.0000000000
     26169       623  TIP3      H2            -18.0051575494      -37.2873140838       23.7284088024  TIP3      423             0.0000000000
     26170       624  TIP3      OH2           -11.9286336981      -37.0385125141       26.6933051147  TIP3      424             0.0000000000
     26171       624  TIP3      H1            -11.1247206854      -36.7640777934       26.2147655450  TIP3      424             0.0000000000
     26172       624  TIP3      H2            -11.6182154953      -37.0833769255       27.6222916055  TIP3      424             0.0000000000
     26173       625  TIP3      OH2            -6.7002715633      -36.7703297962       28.0171845388  TIP3      425             0.0000000000
     26174       625  TIP3      H1             -6.3641852653      -36.7411895226       27.1086295704  TIP3      425             0.0000000000
     26175       625  TIP3      H2             -6.6864438258      -37.7222173295       28.2537638881  TIP3      425             0.0000000000
     26176       626  TIP3      OH2            -5.1831112202      -36.6209465554       24.6264146852  TIP3      426             0.0000000000
     26177       626  TIP3      H1             -6.0364491106      -36.2616074761       24.2912919342  TIP3      426             0.0000000000
     26178       626  TIP3      H2             -5.3222332697      -37.5677744709       24.4424817441  TIP3      426             0.0000000000
     26179       627  TIP3      OH2           -18.2247580120      -21.7477666519       23.5977358244  TIP3      427             0.0000000000
     26180       627  TIP3      H1            -18.2584792816      -22.1554894161       22.7294381245  TIP3      427             0.0000000000
     26181       627  TIP3      H2            -18.1098896595      -20.8015442087       23.4005336893  TIP3      427             0.0000000000
     26182       628  TIP3      OH2           -11.1845345814      -35.4944257431       23.5572526261  TIP3      428             0.0000000000
     26183       628  TIP3      H1            -10.5512911786      -35.9092274925       24.1655539811  TIP3      428             0.0000000000
     26184       628  TIP3      H2            -11.1963335875      -34.5843003608       23.9101059713  TIP3      428             0.0000000000
     26185       629  TIP3      OH2           -17.1657096051      -37.1534509122       36.8964346555  TIP3      429             0.0000000000
     26186       629  TIP3      H1            -16.9940974043      -37.9635666748       36.4058599070  TIP3      429             0.0000000000
     26187       629  TIP3      H2            -16.2907874058      -36.9846162920       37.3058542919  TIP3      429             0.0000000000
     26188       630  TIP3      OH2           -14.6977990591      -37.1642429444       37.9164996470  TIP3      430             0.0000000000
     26189       630  TIP3      H1            -13.8540922654      -36.8126155868       37.5834697951  TIP3      430             0.0000000000
     26190       630  TIP3      H2            -14.5762596967      -38.1180421287       37.6889404071  TIP3      430             0.0000000000
     26191       631  TIP3      OH2           -16.0626214903      -20.3058393018       20.5438384636  TIP3      431             0.0000000000
     26192       631  TIP3      H1            -16.4594262614      -19.9851728300       21.3791540443  TIP3      431             0.0000000000
     26193       631  TIP3      H2            -15.5189897754      -21.0443601229       20.8470256977  TIP3      431             0.0000000000
     26194       632  TIP3      OH2            -6.6060628825      -37.9002751253       38.3422715435  TIP3      432             0.0000000000
     26195       632  TIP3      H1             -6.9541017237      -38.7895520908       38.5492622689  TIP3      432             0.0000000000
     26196       632  TIP3      H2             -5.9101147520      -38.1315756255       37.7194188580  TIP3      432             0.0000000000
     26197       633  TIP3      OH2            -3.1004554635      -22.3140115263       36.7352060000  TIP3      433             0.0000000000
     26198       633  TIP3      H1             -3.7727615481      -22.3256356840       36.0123377928  TIP3      433             0.0000000000
     26199       633  TIP3      H2             -3.2460066268      -21.4370546951       37.1146497298  TIP3      433             0.0000000000
     26200       634  TIP3      OH2            11.2445854796      -28.2362401142       26.8990139156  TIP3      434             0.0000000000
     26201       634  TIP3      H1             11.1376652872      -27.2657995931       26.7878197331  TIP3      434             0.0000000000
     26202       634  TIP3      H2             10.5077294945      -28.5762477798       26.3940470780  TIP3      434             0.0000000000
     26203       635  TIP3      OH2             9.7941610673      -29.4515173826       30.6054265629  TIP3      435             0.0000000000
     26204       635  TIP3      H1              9.8776824813      -29.9458476166       31.4531137844  TIP3      435             0.0000000000
     26205       635  TIP3      H2              9.5078485895      -30.1851378942       30.0198211328  TIP3      435             0.0000000000
     26206       636  TIP3      OH2             2.3877120815      -29.1625214812       31.9760761887  TIP3      436             0.0000000000
     26207       636  TIP3      H1              2.6047652807      -30.0671971841       32.2403652449  TIP3      436             0.0000000000
     26208       636  TIP3      H2              3.2618985978      -28.7458593095       32.0531815591  TIP3      436             0.0000000000
     26209       637  TIP3      OH2             3.5796571756      -24.9338049045       29.9077379039  TIP3      437             0.0000000000
     26210       637  TIP3      H1              3.2558116268      -25.8494543465       29.8058747480  TIP3      437             0.0000000000
     26211       637  TIP3      H2              4.4532019271      -25.0344395472       29.4615273125  TIP3      437             0.0000000000
     26212       638  TIP3      OH2             0.1875897218      -31.7728128124       25.6066186152  TIP3      438             0.0000000000
     26213       638  TIP3      H1             -0.1375566995      -30.9251471646       25.9302740251  TIP3      438             0.0000000000
     26214       638  TIP3      H2              0.0922966819      -31.6009730723       24.6446283779  TIP3      438             0.0000000000
     26215       639  TIP3      OH2             0.7101774991      -29.1226465616       28.1875918586  TIP3      439             0.0000000000
     26216       639  TIP3      H1              1.2424090268      -29.9233066319       28.3577792829  TIP3      439             0.0000000000
     26217       639  TIP3      H2              1.3733534497      -28.4649886910       27.9151423807  TIP3      439             0.0000000000
     26218       640  TIP3      OH2             9.8076952782      -26.7100194964       29.9766733047  TIP3      440             0.0000000000
     26219       640  TIP3      H1              9.7352964777      -27.6832681138       29.9659276758  TIP3      440             0.0000000000
     26220       640  TIP3      H2              9.2684271659      -26.4773451957       30.7678027197  TIP3      440             0.0000000000
     26221       641  TIP3      OH2            17.1506369394      -35.2799996482       31.1774236533  TIP3      441             0.0000000000
     26222       641  TIP3      H1             17.2182468242      -34.6318985460       31.9246148750  TIP3      441             0.0000000000
     26223       641  TIP3      H2             17.7175508375      -34.8436620054       30.5156748934  TIP3      441             0.0000000000
     26224       642  TIP3      OH2            12.1700559691      -32.0725460589       31.1741140943  TIP3      442             0.0000000000
     26225       642  TIP3      H1             12.2546012816      -33.0403897450       31.1898869542  TIP3      442             0.0000000000
     26226       642  TIP3      H2             11.8710714413      -31.9267456794       30.2522488191  TIP3      442             0.0000000000
     26227       643  TIP3      OH2             5.0858787291      -34.2993091162       27.9762171799  TIP3      443             0.0000000000
     26228       643  TIP3      H1              5.1874937848      -33.4916235137       27.4307918585  TIP3      443             0.0000000000
     26229       643  TIP3      H2              4.6341609952      -34.8932220293       27.3425242591  TIP3      443             0.0000000000
     26230       644  TIP3      OH2            12.5802450427      -34.0605236218       26.7978857276  TIP3      444             0.0000000000
     26231       644  TIP3      H1             13.1294985480      -34.3301276508       27.5707480278  TIP3      444             0.0000000000
     26232       644  TIP3      H2             13.2150649341      -33.4421878710       26.3863608643  TIP3      444             0.0000000000
     26233       645  TIP3      OH2             1.4072376443      -31.7339411251       29.0770578381  TIP3      445             0.0000000000
     26234       645  TIP3      H1              1.9911652659      -32.2191327092       29.6823379480  TIP3      445             0.0000000000
     26235       645  TIP3      H2              1.7691440415      -32.0069325087       28.2131102967  TIP3      445             0.0000000000
     26236       646  TIP3      OH2             6.4565627720      -30.1687382357       28.5461511278  TIP3      446             0.0000000000
     26237       646  TIP3      H1              7.3991867689      -30.3854294963       28.6592573303  TIP3      446             0.0000000000
     26238       646  TIP3      H2              6.1883755344      -30.8875902943       27.9458668171  TIP3      446             0.0000000000
     26239       647  TIP3      OH2            17.3568476547      -33.6978648812       33.3580079223  TIP3      447             0.0000000000
     26240       647  TIP3      H1             16.9594961739      -32.8059138843       33.2093491372  TIP3      447             0.0000000000
     26241       647  TIP3      H2             17.3300190043      -33.7677881324       34.3281356816  TIP3      447             0.0000000000
     26242       648  TIP3      OH2             3.7896792618      -35.0917334807       32.2762473857  TIP3      448             0.0000000000
     26243       648  TIP3      H1              3.4780706313      -34.5632839972       31.5108319188  TIP3      448             0.0000000000
     26244       648  TIP3      H2              3.0435344992      -35.0160243821       32.9170064875  TIP3      448             0.0000000000
     26245       649  TIP3      OH2            10.9115376969      -25.8555404623       25.7755307724  TIP3      449             0.0000000000
     26246       649  TIP3      H1             10.6517964930      -26.0755495741       24.8709369970  TIP3      449             0.0000000000
     26247       649  TIP3      H2             10.8257006995      -24.9009907720       25.7454150922  TIP3      449             0.0000000000
     26248       650  TIP3      OH2             5.6586211540      -27.9796424148       32.9170020860  TIP3      450             0.0000000000
     26249       650  TIP3      H1              5.0407963819      -27.3374841674       33.3174215575  TIP3      450             0.0000000000
     26250       650  TIP3      H2              6.3380230760      -27.2982368592       32.6593971907  TIP3      450             0.0000000000
     26251       651  TIP3      OH2            14.5531595758      -34.3539688733       28.5045866787  TIP3      451             0.0000000000
     26252       651  TIP3      H1             14.3065287033      -34.7074350238       29.3772730468  TIP3      451             0.0000000000
     26253       651  TIP3      H2             15.4063569003      -33.9536742996       28.7181055591  TIP3      451             0.0000000000
     26254       652  TIP3      OH2             3.6659215476      -33.3155754421       30.1756411907  TIP3      452             0.0000000000
     26255       652  TIP3      H1              4.2817276733      -32.6305235345       30.5338111133  TIP3      452             0.0000000000
     26256       652  TIP3      H2              4.1457171288      -33.6011093508       29.3638546410  TIP3      452             0.0000000000
     26257       653  TIP3      OH2             4.5906921660      -25.5077392688       33.3202388495  TIP3      453             0.0000000000
     26258       653  TIP3      H1              4.4870327652      -25.0079504867       32.4924507364  TIP3      453             0.0000000000
     26259       653  TIP3      H2              3.6851898794      -25.4703482080       33.7056020011  TIP3      453             0.0000000000
     26260       654  TIP3      OH2             0.3051922378      -25.9982656223       24.0193355465  TIP3      454             0.0000000000
     26261       654  TIP3      H1              0.5964345748      -25.3906421889       23.3263253000  TIP3      454             0.0000000000
     26262       654  TIP3      H2              0.7847690113      -25.6405708080       24.7945404779  TIP3      454             0.0000000000
     26263       655  TIP3      OH2            14.5543819095      -24.1193581424       31.0321200924  TIP3      455             0.0000000000
     26264       655  TIP3      H1             13.5787881088      -24.0855305184       31.1291172235  TIP3      455             0.0000000000
     26265       655  TIP3      H2             14.6376139977      -23.5398138745       30.2618506877  TIP3      455             0.0000000000
     26266       656  TIP3      OH2            14.8231249071      -36.3088894152       32.2727148220  TIP3      456             0.0000000000
     26267       656  TIP3      H1             14.1127341345      -36.0220185687       31.6627675508  TIP3      456             0.0000000000
     26268       656  TIP3      H2             15.5961062026      -36.2895417678       31.6709199480  TIP3      456             0.0000000000
     26269       657  TIP3      OH2             7.9444746998      -37.3138143583       29.0997474564  TIP3      457             0.0000000000
     26270       657  TIP3      H1              7.9410843692      -38.2214200626       29.4838555582  TIP3      457             0.0000000000
     26271       657  TIP3      H2              7.3595145988      -36.8533452520       29.7408836263  TIP3      457             0.0000000000
     26272       658  TIP3      OH2            12.9147353761      -22.4871298466       27.3454866126  TIP3      458             0.0000000000
     26273       658  TIP3      H1             13.0225344770      -23.2839377388       26.8013761861  TIP3      458             0.0000000000
     26274       658  TIP3      H2             13.0408772368      -21.7684211962       26.7074835518  TIP3      458             0.0000000000
     26275       659  TIP3      OH2            15.4771207362      -25.8169205207       34.6655660516  TIP3      459             0.0000000000
     26276       659  TIP3      H1             15.5761615528      -26.5588602444       34.0327252064  TIP3      459             0.0000000000
     26277       659  TIP3      H2             15.6132366134      -25.0495564898       34.0673210710  TIP3      459             0.0000000000
     26278       660  TIP3      OH2             9.8041163480      -29.6220321732       23.8252961904  TIP3      460             0.0000000000
     26279       660  TIP3      H1              9.3318696684      -28.7773736779       23.8569010029  TIP3      460             0.0000000000
     26280       660  TIP3      H2             10.6521526573      -29.3341790453       23.4299932209  TIP3      460             0.0000000000
     26281       661  TIP3      OH2            10.6301132330      -30.7015283330       21.3747718933  TIP3      461             0.0000000000
     26282       661  TIP3      H1             11.4666289005      -30.3624549413       21.7485468416  TIP3      461             0.0000000000
     26283       661  TIP3      H2             10.9575760502      -31.0876676326       20.5488651108  TIP3      461             0.0000000000
     26284       662  TIP3      OH2            17.5854129173      -29.3787052563       32.6287940314  TIP3      462             0.0000000000
     26285       662  TIP3      H1             16.8457333764      -28.7560264844       32.5043017278  TIP3      462             0.0000000000
     26286       662  TIP3      H2             18.1708301361      -29.0489302661       31.9041034563  TIP3      462             0.0000000000
     26287       663  TIP3      OH2            13.4752839126      -30.8801186840       34.4657650749  TIP3      463             0.0000000000
     26288       663  TIP3      H1             13.2861887740      -29.9986099030       34.8252667034  TIP3      463             0.0000000000
     26289       663  TIP3      H2             12.8909075203      -30.8822581388       33.6832551630  TIP3      463             0.0000000000
     26290       664  TIP3      OH2             4.9076515582      -28.3493925072       27.0880177215  TIP3      464             0.0000000000
     26291       664  TIP3      H1              4.7927129278      -28.5283756280       26.1374819679  TIP3      464             0.0000000000
     26292       664  TIP3      H2              5.5551086980      -29.0330230544       27.3504175656  TIP3      464             0.0000000000
     26293       665  TIP3      OH2             6.2061864430      -24.8132724448       29.3175208323  TIP3      465             0.0000000000
     26294       665  TIP3      H1              6.6646232237      -25.3285259535       28.6237347860  TIP3      465             0.0000000000
     26295       665  TIP3      H2              6.6903081988      -25.1265389979       30.1244833889  TIP3      465             0.0000000000
     26296       666  TIP3      OH2             5.0461357991      -29.5262410276       30.8481046757  TIP3      466             0.0000000000
     26297       666  TIP3      H1              5.6145364593      -29.5559176969       30.0439243554  TIP3      466             0.0000000000
     26298       666  TIP3      H2              5.4613037261      -28.8017638897       31.3553495685  TIP3      466             0.0000000000
     26299       667  TIP3      OH2            11.8175234595      -23.8616315671       31.3742621189  TIP3      467             0.0000000000
     26300       667  TIP3      H1             11.5256420694      -23.3315933509       32.1353727249  TIP3      467             0.0000000000
     26301       667  TIP3      H2             11.5133960827      -24.7587049293       31.6440585440  TIP3      467             0.0000000000
     26302       668  TIP3      OH2             6.5572037987      -25.1577772272       35.2468914248  TIP3      468             0.0000000000
     26303       668  TIP3      H1              5.8060573740      -24.6875722162       35.6685498478  TIP3      468             0.0000000000
     26304       668  TIP3      H2              6.2051859117      -25.3343535776       34.3364346918  TIP3      468             0.0000000000
     26305       669  TIP3      OH2            12.6523566340      -29.3292229231       23.0493510441  TIP3      469             0.0000000000
     26306       669  TIP3      H1             12.8895304451      -28.6036411245       23.6621093602  TIP3      469             0.0000000000
     26307       669  TIP3      H2             13.2732745611      -29.1170153013       22.3147047947  TIP3      469             0.0000000000
     26308       670  TIP3      OH2             3.5832834618      -29.4398671871       34.7288039052  TIP3      470             0.0000000000
     26309       670  TIP3      H1              3.7418263852      -28.4837254287       34.7849449468  TIP3      470             0.0000000000
     26310       670  TIP3      H2              2.7819408642      -29.5065994516       35.2728123753  TIP3      470             0.0000000000
     26311       671  TIP3      OH2             4.6518086910      -23.4026823364       36.2453862111  TIP3      471             0.0000000000
     26312       671  TIP3      H1              4.4711180355      -23.0020497878       35.3617583342  TIP3      471             0.0000000000
     26313       671  TIP3      H2              3.7348431926      -23.5359110539       36.5733694678  TIP3      471             0.0000000000
     26314       672  TIP3      OH2            16.2657974821      -37.3122355830       23.3425121612  TIP3      472             0.0000000000
     26315       672  TIP3      H1             15.6269684212      -37.1861995659       22.6020926625  TIP3      472             0.0000000000
     26316       672  TIP3      H2             17.0017070078      -36.7808033835       22.9746796231  TIP3      472             0.0000000000
     26317       673  TIP3      OH2             4.2961684231      -29.4062862780       24.5618084680  TIP3      473             0.0000000000
     26318       673  TIP3      H1              3.6650583100      -28.6959524111       24.2792664960  TIP3      473             0.0000000000
     26319       673  TIP3      H2              3.7001535880      -30.1739835020       24.5830573200  TIP3      473             0.0000000000
     26320       674  TIP3      OH2             0.0189592982      -26.5822950327       33.6299785464  TIP3      474             0.0000000000
     26321       674  TIP3      H1             -0.5410620668      -26.6317320939       32.8449080723  TIP3      474             0.0000000000
     26322       674  TIP3      H2              0.5262803919      -27.4189371021       33.5499009941  TIP3      474             0.0000000000
     26323       675  TIP3      OH2             0.0734569090      -24.0057698348       30.1485835512  TIP3      475             0.0000000000
     26324       675  TIP3      H1              1.0262334443      -24.1729414549       30.2079049638  TIP3      475             0.0000000000
     26325       675  TIP3      H2             -0.0203068564      -23.3438101817       30.8430068777  TIP3      475             0.0000000000
     26326       676  TIP3      OH2            18.2865237716      -23.4509480215       36.2593455605  TIP3      476             0.0000000000
     26327       676  TIP3      H1             18.0615006330      -24.3726833567       36.0375457672  TIP3      476             0.0000000000
     26328       676  TIP3      H2             17.3963003620      -23.1371534744       36.5378427441  TIP3      476             0.0000000000
     26329       677  TIP3      OH2             9.1287049617      -24.1509688921       35.3573341210  TIP3      477             0.0000000000
     26330       677  TIP3      H1              9.0020930603      -23.1861712040       35.3227879204  TIP3      477             0.0000000000
     26331       677  TIP3      H2              8.2014116982      -24.4443017875       35.2379349887  TIP3      477             0.0000000000
     26332       678  TIP3      OH2            12.1033755939      -20.9270875981       21.6411476157  TIP3      478             0.0000000000
     26333       678  TIP3      H1             12.5984527554      -21.7193633664       21.4272781854  TIP3      478             0.0000000000
     26334       678  TIP3      H2             12.5679805520      -20.5931937806       22.4231115190  TIP3      478             0.0000000000
     26335       679  TIP3      OH2            14.9506623627      -32.0859920020       36.6279679671  TIP3      479             0.0000000000
     26336       679  TIP3      H1             14.5368687242      -31.7205166210       35.8271535471  TIP3      479             0.0000000000
     26337       679  TIP3      H2             15.0164182874      -33.0240394388       36.3804992801  TIP3      479             0.0000000000
     26338       680  TIP3      OH2             2.2490885519      -25.4021334148       34.5551586405  TIP3      480             0.0000000000
     26339       680  TIP3      H1              2.4155418284      -25.7638594655       35.4586046719  TIP3      480             0.0000000000
     26340       680  TIP3      H2              1.3507164878      -25.7433028912       34.3636816552  TIP3      480             0.0000000000
     26341       681  TIP3      OH2             5.5876025745      -36.1862274451       30.5474748168  TIP3      481             0.0000000000
     26342       681  TIP3      H1              4.9786063554      -35.8408800637       29.8733295516  TIP3      481             0.0000000000
     26343       681  TIP3      H2              5.2299122415      -35.7077833766       31.3304146405  TIP3      481             0.0000000000
     26344       682  TIP3      OH2             9.2332839607      -36.5261619246       34.3916788239  TIP3      482             0.0000000000
     26345       682  TIP3      H1              9.7073762641      -37.3866902182       34.4497288846  TIP3      482             0.0000000000
     26346       682  TIP3      H2              8.5017512362      -36.8316531316       33.8223788973  TIP3      482             0.0000000000
     26347       683  TIP3      OH2            12.9978694519      -33.5845956552       34.6468910039  TIP3      483             0.0000000000
     26348       683  TIP3      H1             12.3501056608      -33.7906034923       35.3566203537  TIP3      483             0.0000000000
     26349       683  TIP3      H2             13.2520157919      -32.6714476258       34.8680528372  TIP3      483             0.0000000000
     26350       684  TIP3      OH2             9.1490440103      -34.0142474405       21.7143161103  TIP3      484             0.0000000000
     26351       684  TIP3      H1              8.9773583143      -34.8252408578       22.2374717665  TIP3      484             0.0000000000
     26352       684  TIP3      H2              8.5297473172      -34.1277695379       20.9738326790  TIP3      484             0.0000000000
     26353       685  TIP3      OH2             5.3026027328      -32.0071578639       31.8459959599  TIP3      485             0.0000000000
     26354       685  TIP3      H1              4.4859652450      -32.1520135198       32.3680146742  TIP3      485             0.0000000000
     26355       685  TIP3      H2              5.2325894856      -31.0494352506       31.6260799322  TIP3      485             0.0000000000
     26356       686  TIP3      OH2             5.3292142102      -31.9641528554       26.6523347886  TIP3      486             0.0000000000
     26357       686  TIP3      H1              4.3556990133      -31.9829250339       26.6204561929  TIP3      486             0.0000000000
     26358       686  TIP3      H2              5.5389518823      -32.2934279031       25.7531869902  TIP3      486             0.0000000000
     26359       687  TIP3      OH2            11.1804163239      -31.5078929837       25.3036528072  TIP3      487             0.0000000000
     26360       687  TIP3      H1             10.8132102468      -30.7463864926       24.8164519715  TIP3      487             0.0000000000
     26361       687  TIP3      H2             11.5899538324      -32.0273305314       24.5987733093  TIP3      487             0.0000000000
     26362       688  TIP3      OH2             9.5426843064      -31.0556006859       36.8637175059  TIP3      488             0.0000000000
     26363       688  TIP3      H1              9.1658742511      -31.9263867801       37.1214780338  TIP3      488             0.0000000000
     26364       688  TIP3      H2             10.3572603936      -31.0698356455       37.3926682696  TIP3      488             0.0000000000
     26365       689  TIP3      OH2            11.8319224215      -32.0288345650       28.3363468048  TIP3      489             0.0000000000
     26366       689  TIP3      H1             11.6434713200      -31.3364887009       27.6722650753  TIP3      489             0.0000000000
     26367       689  TIP3      H2             11.9233661464      -32.8025988117       27.7361979783  TIP3      489             0.0000000000
     26368       690  TIP3      OH2             2.8552517152      -31.8914228108       33.0912088827  TIP3      490             0.0000000000
     26369       690  TIP3      H1              3.0968103834      -31.4324504435       33.9167158655  TIP3      490             0.0000000000
     26370       690  TIP3      H2              2.4884171761      -32.7299252739       33.4224672870  TIP3      490             0.0000000000
     26371       691  TIP3      OH2             5.7501290817      -33.9047482153       20.4162839741  TIP3      491             0.0000000000
     26372       691  TIP3      H1              5.5279617629      -34.8066028605       20.6857863502  TIP3      491             0.0000000000
     26373       691  TIP3      H2              5.8530733696      -34.0501078761       19.4545895079  TIP3      491             0.0000000000
     26374       692  TIP3      OH2            -0.2260707628      -34.7880649023       27.4845318045  TIP3      492             0.0000000000
     26375       692  TIP3      H1              0.3809900053      -34.6314821576       28.2297804267  TIP3      492             0.0000000000
     26376       692  TIP3      H2             -0.0903453780      -33.9925864516       26.9540596707  TIP3      492             0.0000000000
     26377       693  TIP3      OH2            10.6262847316      -30.6588271573       32.8783174508  TIP3      493             0.0000000000
     26378       693  TIP3      H1             11.2692325220      -31.1149292665       32.2846615717  TIP3      493             0.0000000000
     26379       693  TIP3      H2             10.2533295493      -31.4169876891       33.3879825489  TIP3      493             0.0000000000
     26380       694  TIP3      OH2             8.0240938908      -34.2557290562       27.3748674501  TIP3      494             0.0000000000
     26381       694  TIP3      H1              7.1397923657      -34.6217933628       27.5713345087  TIP3      494             0.0000000000
     26382       694  TIP3      H2              8.4846203961      -34.4397603753       28.2215526436  TIP3      494             0.0000000000
     26383       695  TIP3      OH2             2.5012428483      -32.8520349087       26.6004075370  TIP3      495             0.0000000000
     26384       695  TIP3      H1              1.7159048336      -32.5986342365       26.0619070065  TIP3      495             0.0000000000
     26385       695  TIP3      H2              2.9402464251      -33.5701987005       26.0914668402  TIP3      495             0.0000000000
     26386       696  TIP3      OH2             5.6229308527      -32.8103621063       24.1438176183  TIP3      496             0.0000000000
     26387       696  TIP3      H1              6.5605041599      -32.5961277186       24.2606130687  TIP3      496             0.0000000000
     26388       696  TIP3      H2              5.3055428244      -32.1502910345       23.4774772129  TIP3      496             0.0000000000
     26389       697  TIP3      OH2            12.3168131638      -35.2235274708       30.7348202719  TIP3      497             0.0000000000
     26390       697  TIP3      H1             11.7086102353      -35.1702243936       31.5050235792  TIP3      497             0.0000000000
     26391       697  TIP3      H2             11.8236255380      -35.7709715393       30.0979532362  TIP3      497             0.0000000000
     26392       698  TIP3      OH2             4.5086237684      -31.4434595229       22.1614483493  TIP3      498             0.0000000000
     26393       698  TIP3      H1              3.7229772274      -31.9485094103       21.8858821082  TIP3      498             0.0000000000
     26394       698  TIP3      H2              5.0378571204      -31.4322173519       21.3457846278  TIP3      498             0.0000000000
     26395       699  TIP3      OH2            14.9805378766      -19.2848048396       37.4074242084  TIP3      499             0.0000000000
     26396       699  TIP3      H1             15.1004137224      -19.0060305492       36.4933122979  TIP3      499             0.0000000000
     26397       699  TIP3      H2             15.8747428597      -19.1897899914       37.7670891157  TIP3      499             0.0000000000
     26398       700  TIP3      OH2             2.8096694766      -26.9288123008       36.8784978352  TIP3      500             0.0000000000
     26399       700  TIP3      H1              3.5753074491      -27.0113419096       37.4860897741  TIP3      500             0.0000000000
     26400       700  TIP3      H2              2.0787071841      -27.2661356016       37.4214649566  TIP3      500             0.0000000000
     26401       701  TIP3      OH2             9.1945282234      -31.7161026087       29.4171432688  TIP3      501             0.0000000000
     26402       701  TIP3      H1              9.9155228818      -32.0886103049       28.8849911875  TIP3      501             0.0000000000
     26403       701  TIP3      H2              8.8868134269      -32.4986851916       29.8852282908  TIP3      501             0.0000000000
     26404       702  TIP3      OH2             3.8178531935      -35.2615926514       25.7972501666  TIP3      502             0.0000000000
     26405       702  TIP3      H1              3.4620988321      -36.0790023428       26.2041819836  TIP3      502             0.0000000000
     26406       702  TIP3      H2              4.4806424238      -35.6062811575       25.1624104938  TIP3      502             0.0000000000
     26407       703  TIP3      OH2             7.6404482823      -33.5039215524       31.9352481585  TIP3      503             0.0000000000
     26408       703  TIP3      H1              7.0311604659      -32.7363339353       31.9318187188  TIP3      503             0.0000000000
     26409       703  TIP3      H2              8.3943890217      -33.1484458520       32.4444619201  TIP3      503             0.0000000000
     26410       704  TIP3      OH2            15.6393086206      -27.3760493347       32.5308534114  TIP3      504             0.0000000000
     26411       704  TIP3      H1             16.0716690686      -26.9087559439       31.7768659318  TIP3      504             0.0000000000
     26412       704  TIP3      H2             14.6938166933      -27.3580996628       32.2981511823  TIP3      504             0.0000000000
     26413       705  TIP3      OH2            11.8650699117      -33.9581330321       21.0455241602  TIP3      505             0.0000000000
     26414       705  TIP3      H1             10.9423756347      -33.9274795658       21.3589680003  TIP3      505             0.0000000000
     26415       705  TIP3      H2             12.3366959263      -33.5089061587       21.7639641878  TIP3      505             0.0000000000
     26416       706  TIP3      OH2            10.1691080469      -26.7499760879       35.3722499138  TIP3      506             0.0000000000
     26417       706  TIP3      H1              9.3901130682      -27.2983314016       35.2200521394  TIP3      506             0.0000000000
     26418       706  TIP3      H2              9.7873588326      -25.8493250720       35.4484197390  TIP3      506             0.0000000000
     26419       707  TIP3      OH2            12.8184876612      -32.2188282525       23.1884051457  TIP3      507             0.0000000000
     26420       707  TIP3      H1             13.4926322370      -32.4416810748       23.8725703154  TIP3      507             0.0000000000
     26421       707  TIP3      H2             12.9627866967      -31.2578167437       23.0998328274  TIP3      507             0.0000000000
     26422       708  TIP3      OH2             3.2737706338      -27.5430699384       29.2119488332  TIP3      508             0.0000000000
     26423       708  TIP3      H1              3.8654307160      -27.6610087181       28.4397720180  TIP3      508             0.0000000000
     26424       708  TIP3      H2              3.5817862148      -28.2524288470       29.7964203672  TIP3      508             0.0000000000
     26425       709  TIP3      OH2             0.0958750852      -29.3544664761       34.8344212652  TIP3      509             0.0000000000
     26426       709  TIP3      H1              0.0433969524      -30.0066342689       35.5580679229  TIP3      509             0.0000000000
     26427       709  TIP3      H2             -0.4532065423      -29.7796794185       34.1361682229  TIP3      509             0.0000000000
     26428       710  TIP3      OH2             7.2851657169      -29.6489961147       36.7176185310  TIP3      510             0.0000000000
     26429       710  TIP3      H1              6.8728401849      -30.2957460601       36.1239884022  TIP3      510             0.0000000000
     26430       710  TIP3      H2              8.1617216039      -30.0787695483       36.8625166397  TIP3      510             0.0000000000
     26431       711  TIP3      OH2            12.2307709462      -24.1389957916       35.0682920871  TIP3      511             0.0000000000
     26432       711  TIP3      H1             11.3863626306      -24.2472821064       34.6022163348  TIP3      511             0.0000000000
     26433       711  TIP3      H2             11.9302816008      -23.8658298708       35.9570216628  TIP3      511             0.0000000000
     26434       712  TIP3      OH2            17.6383042297      -32.1010548710       23.5270948202  TIP3      512             0.0000000000
     26435       712  TIP3      H1             17.1025225878      -32.5639006852       22.8553916743  TIP3      512             0.0000000000
     26436       712  TIP3      H2             17.5651188132      -31.1429464003       23.2833184434  TIP3      512             0.0000000000
     26437       713  TIP3      OH2            17.7375688889      -26.3526926734       35.9712537215  TIP3      513             0.0000000000
     26438       713  TIP3      H1             16.8148660391      -26.1676865670       35.6827451763  TIP3      513             0.0000000000
     26439       713  TIP3      H2             18.1901662007      -26.4287191145       35.0995139407  TIP3      513             0.0000000000
     26440       714  TIP3      OH2             7.0162288229      -26.0484567430       26.4752191445  TIP3      514             0.0000000000
     26441       714  TIP3      H1              7.1072259084      -25.8094317033       25.5305739279  TIP3      514             0.0000000000
     26442       714  TIP3      H2              6.1818362877      -26.5188626176       26.5172360348  TIP3      514             0.0000000000
     26443       715  TIP3      OH2             7.5450916425      -22.5137197736       33.1217230704  TIP3      515             0.0000000000
     26444       715  TIP3      H1              8.1541540532      -21.9074204731       32.6973253118  TIP3      515             0.0000000000
     26445       715  TIP3      H2              7.7326135862      -23.3640722070       32.6819883562  TIP3      515             0.0000000000
     26446       716  TIP3      OH2            11.0325095254      -26.3513476283       32.5944933240  TIP3      516             0.0000000000
     26447       716  TIP3      H1             10.7305221536      -26.5104378301       33.5089615256  TIP3      516             0.0000000000
     26448       716  TIP3      H2             10.9484697317      -27.2322957120       32.1982913042  TIP3      516             0.0000000000
     26449       717  TIP3      OH2            13.9332090556      -21.8466799025       34.9183843301  TIP3      517             0.0000000000
     26450       717  TIP3      H1             13.0662136155      -22.2988876435       34.8335635003  TIP3      517             0.0000000000
     26451       717  TIP3      H2             13.9271824226      -21.2766475636       34.1164502537  TIP3      517             0.0000000000
     26452       718  TIP3      OH2            18.0264138111      -20.3287255364       22.4044332743  TIP3      518             0.0000000000
     26453       718  TIP3      H1             17.9353690389      -19.7158731154       21.6510437488  TIP3      518             0.0000000000
     26454       718  TIP3      H2             17.2083435566      -20.8346797635       22.3352492195  TIP3      518             0.0000000000
     26455       719  TIP3      OH2             1.9033063216      -34.7131750201       34.2504041296  TIP3      519             0.0000000000
     26456       719  TIP3      H1              1.1541735543      -34.1403796241       34.4809893207  TIP3      519             0.0000000000
     26457       719  TIP3      H2              1.5131435182      -35.6016459656       34.3488989340  TIP3      519             0.0000000000
     26458       720  TIP3      OH2             1.5725054421      -22.9925828282       32.6793926210  TIP3      520             0.0000000000
     26459       720  TIP3      H1              2.3279842131      -23.6031078355       32.6299098923  TIP3      520             0.0000000000
     26460       720  TIP3      H2              1.6600651165      -22.6640195947       33.5814013049  TIP3      520             0.0000000000
     26461       721  TIP3      OH2             2.7036909422      -27.5482413857       23.4774806403  TIP3      521             0.0000000000
     26462       721  TIP3      H1              1.8066025547      -27.5556432149       23.1054946689  TIP3      521             0.0000000000
     26463       721  TIP3      H2              3.0989966265      -26.8530186614       22.9109533509  TIP3      521             0.0000000000
     26464       722  TIP3      OH2            10.8531201605      -34.7658376284       33.2148163623  TIP3      522             0.0000000000
     26465       722  TIP3      H1             11.5154160147      -34.5741682530       33.9019219407  TIP3      522             0.0000000000
     26466       722  TIP3      H2             10.2932961078      -35.4248369252       33.6887668270  TIP3      522             0.0000000000
     26467       723  TIP3      OH2            11.2436214086      -34.9251375451       24.7097525661  TIP3      523             0.0000000000
     26468       723  TIP3      H1             11.7725719128      -34.4173203406       24.0905675466  TIP3      523             0.0000000000
     26469       723  TIP3      H2             11.8089311612      -34.8459676959       25.5211895758  TIP3      523             0.0000000000
     26470       724  TIP3      OH2             8.3602674547      -33.0713942483       24.8439831536  TIP3      524             0.0000000000
     26471       724  TIP3      H1              9.3179742590      -33.0334296261       24.9880480720  TIP3      524             0.0000000000
     26472       724  TIP3      H2              8.0743853538      -33.4312795772       25.7133395323  TIP3      524             0.0000000000
     26473       725  TIP3      OH2             9.5454780541      -32.4363973471       34.5608475976  TIP3      525             0.0000000000
     26474       725  TIP3      H1              9.5622700152      -31.9167092239       35.3947733251  TIP3      525             0.0000000000
     26475       725  TIP3      H2              9.7107244967      -33.3607885832       34.8089591150  TIP3      525             0.0000000000
     26476       726  TIP3      OH2             9.3488449355      -36.3552877008       25.8240823143  TIP3      526             0.0000000000
     26477       726  TIP3      H1              9.1422169399      -35.6730787581       26.4895299481  TIP3      526             0.0000000000
     26478       726  TIP3      H2             10.1998939469      -36.0183935105       25.4579284517  TIP3      526             0.0000000000
     26479       727  TIP3      OH2             5.2120282370      -35.4102736975       23.3279578509  TIP3      527             0.0000000000
     26480       727  TIP3      H1              5.1219028406      -34.4488775301       23.4346918558  TIP3      527             0.0000000000
     26481       727  TIP3      H2              6.1796362175      -35.5232141870       23.4097139941  TIP3      527             0.0000000000
     26482       728  TIP3      OH2            15.4191120845      -34.4054502091       35.2178236926  TIP3      528             0.0000000000
     26483       728  TIP3      H1             14.4479382963      -34.3115772049       35.1135259672  TIP3      528             0.0000000000
     26484       728  TIP3      H2             15.6635418184      -34.6380187509       34.3019398596  TIP3      528             0.0000000000
     26485       729  TIP3      OH2            14.1268074878      -30.7763534846       29.1296135277  TIP3      529             0.0000000000
     26486       729  TIP3      H1             13.3036075184      -31.2673156533       29.0715698954  TIP3      529             0.0000000000
     26487       729  TIP3      H2             14.7137080770      -31.3692820526       29.6471242933  TIP3      529             0.0000000000
     26488       730  TIP3      OH2             3.4680966545      -25.4540277140       21.9596358167  TIP3      530             0.0000000000
     26489       730  TIP3      H1              4.1706667708      -25.0028446255       22.4538791222  TIP3      530             0.0000000000
     26490       730  TIP3      H2              3.9736693751      -26.0347095496       21.3681915407  TIP3      530             0.0000000000
     26491       731  TIP3      OH2             1.5707051425      -32.2936299512       20.9809632043  TIP3      531             0.0000000000
     26492       731  TIP3      H1              1.4070456316      -31.3519821419       21.1665871028  TIP3      531             0.0000000000
     26493       731  TIP3      H2              1.6563173493      -32.2671008004       20.0141919522  TIP3      531             0.0000000000
     26494       732  TIP3      OH2            15.0172485620      -21.4626638241       30.4662211591  TIP3      532             0.0000000000
     26495       732  TIP3      H1             15.3628390046      -21.3607200203       29.5644529520  TIP3      532             0.0000000000
     26496       732  TIP3      H2             15.8536929873      -21.5147448406       30.9662872701  TIP3      532             0.0000000000
     26497       733  TIP3      OH2             2.4789804772      -36.5900914405       29.3920844132  TIP3      533             0.0000000000
     26498       733  TIP3      H1              2.3696565399      -36.8127561062       28.4367670513  TIP3      533             0.0000000000
     26499       733  TIP3      H2              2.4282633947      -37.4936645164       29.7708974591  TIP3      533             0.0000000000
     26500       734  TIP3      OH2             1.4398262376      -23.9890019114       25.4065884926  TIP3      534             0.0000000000
     26501       734  TIP3      H1              1.1375057821      -23.3312749297       26.0402351527  TIP3      534             0.0000000000
     26502       734  TIP3      H2              1.4040282239      -23.4540096196       24.5906579749  TIP3      534             0.0000000000
     26503       735  TIP3      OH2             0.5460373748      -20.6694573975       37.0603488629  TIP3      535             0.0000000000
     26504       735  TIP3      H1              1.2029781640      -20.8457220930       37.7699379809  TIP3      535             0.0000000000
     26505       735  TIP3      H2              0.2886255389      -21.5784499048       36.8070945777  TIP3      535             0.0000000000
     26506       736  TIP3      OH2             5.4658811357      -21.8095898116       38.4643457620  TIP3      536             0.0000000000
     26507       736  TIP3      H1              6.3744809247      -22.1290232954       38.6194891579  TIP3      536             0.0000000000
     26508       736  TIP3      H2              5.2747764223      -22.2429794632       37.6143160667  TIP3      536             0.0000000000
     26509       737  TIP3      OH2            11.7602221583      -23.0971686332       37.5762214468  TIP3      537             0.0000000000
     26510       737  TIP3      H1             11.3887362196      -23.9867130369       37.7690058003  TIP3      537             0.0000000000
     26511       737  TIP3      H2             12.6244358326      -23.1706842034       38.0485923482  TIP3      537             0.0000000000
     26512       738  TIP3      OH2             0.3194403258      -27.0428576554       38.2682160983  TIP3      538             0.0000000000
     26513       738  TIP3      H1             -0.0210858444      -27.9366770305       38.4073758620  TIP3      538             0.0000000000
     26514       738  TIP3      H2             -0.1623857652      -26.8072383259       37.4478908228  TIP3      538             0.0000000000
     26515       739  TIP3      OH2             7.2919042604      -26.9603181699       37.1528706679  TIP3      539             0.0000000000
     26516       739  TIP3      H1              7.1104862287      -26.3900270960       36.3634156186  TIP3      539             0.0000000000
     26517       739  TIP3      H2              7.3879141961      -27.8673541002       36.7831434265  TIP3      539             0.0000000000
     26518       740  TIP3      OH2            12.8853044116      -27.2081530123       35.0194964801  TIP3      540             0.0000000000
     26519       740  TIP3      H1             13.6032356312      -26.5441150695       34.9970917013  TIP3      540             0.0000000000
     26520       740  TIP3      H2             12.0846163687      -26.6439692796       35.1282945228  TIP3      540             0.0000000000
     26521       741  TIP3      OH2             1.8669456965      -29.9341634846       37.8951178474  TIP3      541             0.0000000000
     26522       741  TIP3      H1              2.5678785838      -30.5972167204       37.9693761295  TIP3      541             0.0000000000
     26523       741  TIP3      H2              2.0363632532      -29.3399784989       38.6586114134  TIP3      541             0.0000000000
     26524       742  TIP3      OH2             6.6591121474      -29.5858218735       22.5906017099  TIP3      542             0.0000000000
     26525       742  TIP3      H1              5.8990246085      -29.5489630367       23.2102997891  TIP3      542             0.0000000000
     26526       742  TIP3      H2              6.3276121835      -28.9068400297       21.9779433392  TIP3      542             0.0000000000
     26527       743  TIP3      OH2             5.8702545587      -31.0543068916       34.6298124830  TIP3      543             0.0000000000
     26528       743  TIP3      H1              5.0354116738      -30.5679089500       34.7830968449  TIP3      543             0.0000000000
     26529       743  TIP3      H2              6.3311907549      -30.4398879344       34.0194702145  TIP3      543             0.0000000000
     26530       744  TIP3      OH2            10.7360095024      -28.1187351756       38.3325668822  TIP3      544             0.0000000000
     26531       744  TIP3      H1             11.4062929812      -28.3894182125       37.6975953916  TIP3      544             0.0000000000
     26532       744  TIP3      H2             10.5857468302      -28.9411053448       38.8479679834  TIP3      544             0.0000000000
     26533       745  TIP3      OH2             6.2284566779      -33.3876893985       35.7851100183  TIP3      545             0.0000000000
     26534       745  TIP3      H1              6.3103671792      -34.0170298773       35.0336861924  TIP3      545             0.0000000000
     26535       745  TIP3      H2              6.2596645309      -32.5552117024       35.2576355568  TIP3      545             0.0000000000
     26536       746  TIP3      OH2             6.0662280210      -34.8471690346       33.6099899157  TIP3      546             0.0000000000
     26537       746  TIP3      H1              6.6084028683      -34.4978963123       32.8639327486  TIP3      546             0.0000000000
     26538       746  TIP3      H2              5.1519223532      -34.6956904676       33.2915397010  TIP3      546             0.0000000000
     26539       747  TIP3      OH2             7.7090810693      -29.6321935430       33.3754746308  TIP3      547             0.0000000000
     26540       747  TIP3      H1              8.5584628248      -29.2060994775       33.2473895711  TIP3      547             0.0000000000
     26541       747  TIP3      H2              7.0894850386      -28.9753910235       33.0109418091  TIP3      547             0.0000000000
     26542       748  TIP3      OH2            12.0492373163      -32.0528206331       38.5161883560  TIP3      548             0.0000000000
     26543       748  TIP3      H1             12.4099165113      -32.9531705247       38.6095286168  TIP3      548             0.0000000000
     26544       748  TIP3      H2             12.8027019400      -31.4937292854       38.7608268962  TIP3      548             0.0000000000
     26545       749  TIP3      OH2            13.5578530021      -28.7985868800       37.0508350867  TIP3      549             0.0000000000
     26546       749  TIP3      H1             13.2128235744      -28.2397868773       36.3246065267  TIP3      549             0.0000000000
     26547       749  TIP3      H2             14.4859739487      -28.8951593596       36.7712084737  TIP3      549             0.0000000000
     26548       750  TIP3      OH2             4.4266129573      -32.4296805267       37.6179851217  TIP3      550             0.0000000000
     26549       750  TIP3      H1              3.6450768736      -32.9656890077       37.3893188072  TIP3      550             0.0000000000
     26550       750  TIP3      H2              5.0954597283      -32.8184956125       36.9982356836  TIP3      550             0.0000000000
     26551       751  TIP3      OH2             6.8863455352      -37.3166822457       33.4071310581  TIP3      551             0.0000000000
     26552       751  TIP3      H1              6.6849318437      -36.3658807406       33.5987111742  TIP3      551             0.0000000000
     26553       751  TIP3      H2              6.0605875859      -37.5589557839       32.9744109181  TIP3      551             0.0000000000
     26554       752  TIP3      OH2             8.3255464285      -33.3878869552       37.7012408229  TIP3      552             0.0000000000
     26555       752  TIP3      H1              7.7296100337      -33.5887599944       38.4512785925  TIP3      552             0.0000000000
     26556       752  TIP3      H2              7.7124638559      -33.5646927098       36.9605159362  TIP3      552             0.0000000000
     26557       753  TIP3      OH2            11.1837338483      -34.2647507999       36.6038772433  TIP3      553             0.0000000000
     26558       753  TIP3      H1             10.2517703025      -34.2655016625       36.8786601416  TIP3      553             0.0000000000
     26559       753  TIP3      H2             11.5906470779      -34.7768667229       37.3328991380  TIP3      553             0.0000000000
     26560       754  TIP3      OH2            13.1385201483      -35.2288980278       38.6377228452  TIP3      554             0.0000000000
     26561       754  TIP3      H1             13.0124978118      -36.2160236230       38.6951695735  TIP3      554             0.0000000000
     26562       754  TIP3      H2             12.7382813291      -34.9592599794       39.5031088795  TIP3      554             0.0000000000
     26563       755  TIP3      OH2             2.2601136598      -34.2720919328       37.8305536626  TIP3      555             0.0000000000
     26564       755  TIP3      H1              2.0694408535      -35.0736576114       37.3097077435  TIP3      555             0.0000000000
     26565       755  TIP3      H2              2.2443146302      -34.6234669078       38.7584718635  TIP3      555             0.0000000000
     26566       756  TIP3      OH2             7.0466219177      -37.5414819022       36.2948394843  TIP3      556             0.0000000000
     26567       756  TIP3      H1              6.9503304130      -38.5124044000       36.3455605825  TIP3      556             0.0000000000
     26568       756  TIP3      H2              7.2818626204      -37.3822530052       35.3583815603  TIP3      556             0.0000000000
     26569       757  TIP3      OH2             7.5298301136      -36.9180033110       38.9579063719  TIP3      557             0.0000000000
     26570       757  TIP3      H1              7.6575391456      -37.3005425782       38.0673519993  TIP3      557             0.0000000000
     26571       757  TIP3      H2              6.9937650392      -36.1317939788       38.7520604613  TIP3      557             0.0000000000
     26572       758  TIP3      OH2             0.6539087071      -21.6660874239       28.2205259616  TIP3      558             0.0000000000
     26573       758  TIP3      H1              0.0032811019      -22.3756701827       28.2663450109  TIP3      558             0.0000000000
     26574       758  TIP3      H2              0.8192129371      -21.4910540389       29.1660905080  TIP3      558             0.0000000000
     26575       759  TIP3      OH2            17.7868722740      -21.1924863752       30.7338430711  TIP3      559             0.0000000000
     26576       759  TIP3      H1             17.7905059260      -21.0925349487       31.7076681332  TIP3      559             0.0000000000
     26577       759  TIP3      H2             18.6386427542      -20.7771100383       30.5422378235  TIP3      559             0.0000000000
     26578       760  TIP3      OH2            17.2405028651      -21.2130917602       33.5275732188  TIP3      560             0.0000000000
     26579       760  TIP3      H1             16.8276834102      -22.0953253914       33.3365172316  TIP3      560             0.0000000000
     26580       760  TIP3      H2             17.6363200338      -21.4327972931       34.3893971139  TIP3      560             0.0000000000
     26581       761  TIP3      OH2            15.9326500163      -25.7759258697       38.8096214225  TIP3      561             0.0000000000
     26582       761  TIP3      H1             15.0142275336      -25.6970313090       39.1297315026  TIP3      561             0.0000000000
     26583       761  TIP3      H2             16.3345952419      -24.9833153788       39.2009236765  TIP3      561             0.0000000000
     26584       762  TIP3      OH2            17.2117431192      -26.4226207977       30.6105656859  TIP3      562             0.0000000000
     26585       762  TIP3      H1             17.9529269764      -27.0670510905       30.5986255896  TIP3      562             0.0000000000
     26586       762  TIP3      H2             17.6945341411      -25.5803411741       30.4842165294  TIP3      562             0.0000000000
     26587       763  TIP3      OH2            15.8918604029      -23.5298193910       33.2391196290  TIP3      563             0.0000000000
     26588       763  TIP3      H1             15.1426510227      -23.1756745510       33.7517383826  TIP3      563             0.0000000000
     26589       763  TIP3      H2             15.4424823921      -23.7439746143       32.3830709009  TIP3      563             0.0000000000
     26590       764  TIP3      OH2            17.5270947271      -29.4073636569       22.7795677884  TIP3      564             0.0000000000
     26591       764  TIP3      H1             17.0229089016      -29.0419761773       22.0446323719  TIP3      564             0.0000000000
     26592       764  TIP3      H2             17.6807618229      -28.6193140217       23.3279492296  TIP3      564             0.0000000000
     26593       765  TIP3      OH2             0.1525949542      -28.4825445290       30.7205485217  TIP3      565             0.0000000000
     26594       765  TIP3      H1              0.2932449361      -28.8738386448       29.8326818627  TIP3      565             0.0000000000
     26595       765  TIP3      H2              1.0455880041      -28.5751420341       31.1247181397  TIP3      565             0.0000000000
     26596       766  TIP3      OH2            16.3339723523      -28.7333977781       36.2444480520  TIP3      566             0.0000000000
     26597       766  TIP3      H1             16.8265787762      -29.5794676223       36.3646317334  TIP3      566             0.0000000000
     26598       766  TIP3      H2             17.0403231879      -28.0608920378       36.1282848456  TIP3      566             0.0000000000
     26599       767  TIP3      OH2            17.4628335710      -31.1971553304       36.7219473689  TIP3      567             0.0000000000
     26600       767  TIP3      H1             16.5566835116      -31.5829015668       36.7619624137  TIP3      567             0.0000000000
     26601       767  TIP3      H2             18.0421868491      -31.9771180434       36.8594240345  TIP3      567             0.0000000000
     26602       768  TIP3      OH2            14.6273042515      -32.8715117563       25.2018195374  TIP3      568             0.0000000000
     26603       768  TIP3      H1             15.0454907139      -33.7676301161       25.2344178804  TIP3      568             0.0000000000
     26604       768  TIP3      H2             15.4092619445      -32.3398935613       25.0083096346  TIP3      568             0.0000000000
     26605       769  TIP3      OH2            15.8126747736      -32.4783330101       30.6005430606  TIP3      569             0.0000000000
     26606       769  TIP3      H1             16.7527871538      -32.1750566969       30.6607477331  TIP3      569             0.0000000000
     26607       769  TIP3      H2             15.6037107336      -32.6609357447       31.5209395707  TIP3      569             0.0000000000
     26608       770  TIP3      OH2            15.8977786819      -31.4467264285       33.3635601153  TIP3      570             0.0000000000
     26609       770  TIP3      H1             15.0132198131      -31.2215908091       33.7089250726  TIP3      570             0.0000000000
     26610       770  TIP3      H2             16.2793843045      -30.5764353031       33.1077276819  TIP3      570             0.0000000000
     26611       771  TIP3      OH2            -0.0676441603      -33.4327731808       36.7876178538  TIP3      571             0.0000000000
     26612       771  TIP3      H1              0.8354085070      -33.4759452267       37.1563148549  TIP3      571             0.0000000000
     26613       771  TIP3      H2             -0.4848821412      -34.2683886976       37.0811640404  TIP3      571             0.0000000000
     26614       772  TIP3      OH2            18.5863510463      -37.5219957118       38.6339496587  TIP3      572             0.0000000000
     26615       772  TIP3      H1             19.3976618910      -37.6504249766       38.0933472121  TIP3      572             0.0000000000
     26616       772  TIP3      H2             18.2110675511      -36.8088376616       38.0788965877  TIP3      572             0.0000000000
     26617       773  TIP3      OH2            15.8634647564      -35.2531953300       25.2704631530  TIP3      573             0.0000000000
     26618       773  TIP3      H1             15.9528905675      -35.5334078817       26.1997314389  TIP3      573             0.0000000000
     26619       773  TIP3      H2             15.2471476440      -35.9484334775       24.9382683566  TIP3      573             0.0000000000
     26620       774  TIP3      OH2             1.0705125963      -34.4146842577       30.0960269999  TIP3      574             0.0000000000
     26621       774  TIP3      H1              1.4637803901      -35.3181266674       30.0348101246  TIP3      574             0.0000000000
     26622       774  TIP3      H2              1.8867067980      -33.9122316284       30.2468552085  TIP3      574             0.0000000000
     26623       775  TIP3      OH2            -0.4271637556      -31.8646625944       30.9828354020  TIP3      575             0.0000000000
     26624       775  TIP3      H1              0.1178716245      -32.1228694591       30.2033844409  TIP3      575             0.0000000000
     26625       775  TIP3      H2             -0.0062835940      -31.0346725135       31.2233653907  TIP3      575             0.0000000000
     26626       776  TIP3      OH2            17.3144416847      -35.3520570263       37.1788632223  TIP3      576             0.0000000000
     26627       776  TIP3      H1             16.5155433042      -34.7843436904       37.2023132031  TIP3      576             0.0000000000
     26628       776  TIP3      H2             17.1219946000      -35.8693097671       36.3794228471  TIP3      576             0.0000000000
     26629       777  TIP3      OH2            17.6812404644      -35.3871978262       21.6291788575  TIP3      577             0.0000000000
     26630       777  TIP3      H1             17.7943259685      -36.1672269877       21.0621627290  TIP3      577             0.0000000000
     26631       777  TIP3      H2             18.4545381424      -34.8672444923       21.3763814533  TIP3      577             0.0000000000
     26632       778  TIP3      OH2            -0.0270929406      -36.5496079195       32.7733366125  TIP3      578             0.0000000000
     26633       778  TIP3      H1             -0.6277236177      -36.5044918341       33.5451011999  TIP3      578             0.0000000000
     26634       778  TIP3      H2             -0.4665093158      -35.8840940663       32.2018630902  TIP3      578             0.0000000000
     26635       779  TIP3      OH2             2.0942959411      -24.0645347458       37.0698413964  TIP3      579             0.0000000000
     26636       779  TIP3      H1              1.2628465385      -23.7536615010       36.6911145423  TIP3      579             0.0000000000
     26637       779  TIP3      H2              1.8131580938      -24.6516761068       37.7850157474  TIP3      579             0.0000000000
     26638       780  TIP3      OH2             4.7441307993      -22.1387228743       33.8816901219  TIP3      580             0.0000000000
     26639       780  TIP3      H1              5.1495838219      -21.4560338155       33.3165719439  TIP3      580             0.0000000000
     26640       780  TIP3      H2              5.5032014425      -22.7346972743       34.0039805185  TIP3      580             0.0000000000
     26641       781  TIP3      OH2             9.0612686892      -21.2673452293       36.2677672268  TIP3      581             0.0000000000
     26642       781  TIP3      H1              9.2075013661      -21.6448043904       37.1627639770  TIP3      581             0.0000000000
     26643       781  TIP3      H2              9.9374060132      -20.8769720504       36.0733107811  TIP3      581             0.0000000000
     26644       782  TIP3      OH2            11.3270913159      -19.7638261410       35.7250496451  TIP3      582             0.0000000000
     26645       782  TIP3      H1             12.0481496871      -20.3586152552       35.4964405608  TIP3      582             0.0000000000
     26646       782  TIP3      H2             11.6150250582      -19.4526102429       36.6223184535  TIP3      582             0.0000000000
     26647       783  TIP3      OH2            16.7207463728      -36.7969751852       34.7230639655  TIP3      583             0.0000000000
     26648       783  TIP3      H1             15.8803688380      -36.5512323183       34.2978092329  TIP3      583             0.0000000000
     26649       783  TIP3      H2             16.5255673966      -37.7409399959       34.9067559583  TIP3      583             0.0000000000
     26650       784  TIP3      OH2             2.3924542585      -19.5027496155       33.3890554890  TIP3      584             0.0000000000
     26651       784  TIP3      H1              1.6438595546      -18.8840462612       33.2531846669  TIP3      584             0.0000000000
     26652       784  TIP3      H2              2.4054721890      -19.6507506619       34.3452557840  TIP3      584             0.0000000000
     26653       785  TIP3      OH2             4.8632035988      -19.6635314106       32.2926783213  TIP3      585             0.0000000000
     26654       785  TIP3      H1              3.9214423701      -19.8929759912       32.4989075623  TIP3      585             0.0000000000
     26655       785  TIP3      H2              4.7991316312      -18.7029044881       32.4087521120  TIP3      585             0.0000000000
     26656       786  TIP3      OH2             9.2944216053      -20.2601905069       31.6576897800  TIP3      586             0.0000000000
     26657       786  TIP3      H1              8.8066236939      -19.5536990778       31.2109626241  TIP3      586             0.0000000000
     26658       786  TIP3      H2              9.6561513485      -19.7464541556       32.4137852353  TIP3      586             0.0000000000
     26659       787  TIP3      OH2            11.4764537792      -21.6309439519       33.1133654425  TIP3      587             0.0000000000
     26660       787  TIP3      H1             10.8341265088      -21.3176507683       32.4610144884  TIP3      587             0.0000000000
     26661       787  TIP3      H2             12.2483951627      -21.0793882811       32.8879997369  TIP3      587             0.0000000000
     26662       788  TIP3      OH2            14.0206408261      -20.2720136304       32.7960228537  TIP3      588             0.0000000000
     26663       788  TIP3      H1             14.1884749778      -19.3187395934       32.7001006630  TIP3      588             0.0000000000
     26664       788  TIP3      H2             14.2641780339      -20.5924635150       31.9026999631  TIP3      588             0.0000000000
     26665       789  TIP3      OH2             1.7878259282      -20.8903550505       30.7478729384  TIP3      589             0.0000000000
     26666       789  TIP3      H1              1.6530213031      -21.1840474340       31.6714577455  TIP3      589             0.0000000000
     26667       789  TIP3      H2              2.5941337233      -21.3930143288       30.4982463221  TIP3      589             0.0000000000
     26668       790  TIP3      OH2             3.9723262829      -22.2048634128       29.9332836263  TIP3      590             0.0000000000
     26669       790  TIP3      H1              3.6370585466      -23.1203465700       29.8341168290  TIP3      590             0.0000000000
     26670       790  TIP3      H2              4.8971380681      -22.3771536771       29.7324014881  TIP3      590             0.0000000000
     26671       791  TIP3      OH2             9.7283262712      -35.2313648079       29.2477062647  TIP3      591             0.0000000000
     26672       791  TIP3      H1              9.3250159851      -36.1098414334       29.3708388001  TIP3      591             0.0000000000
     26673       791  TIP3      H2             10.4830484835      -35.4845496581       28.6903400848  TIP3      591             0.0000000000
     26674       792  TIP3      OH2            14.8638646810      -37.1677466195       29.1314486077  TIP3      592             0.0000000000
     26675       792  TIP3      H1             15.6319107233      -36.6950255217       28.7209105853  TIP3      592             0.0000000000
     26676       792  TIP3      H2             14.2133257937      -37.1359783354       28.4246269207  TIP3      592             0.0000000000
     26677       793  TIP3      OH2            16.9356022847      -36.4164924074       27.4984264289  TIP3      593             0.0000000000
     26678       793  TIP3      H1             17.2564065263      -37.0883902611       26.8721329428  TIP3      593             0.0000000000
     26679       793  TIP3      H2             17.5823798241      -35.6751316139       27.4026114644  TIP3      593             0.0000000000
     26680       794  TIP3      OH2             2.3895613500      -37.1943981673       26.8117328767  TIP3      594             0.0000000000
     26681       794  TIP3      H1              1.7933354228      -37.0613510536       26.0774137993  TIP3      594             0.0000000000
     26682       794  TIP3      H2              2.3813527046      -38.1816024482       26.9102033908  TIP3      594             0.0000000000
     26683       795  TIP3      OH2             7.0370221278      -37.4497316793       26.5559576599  TIP3      595             0.0000000000
     26684       795  TIP3      H1              7.8347250947      -37.0700774076       26.1404917492  TIP3      595             0.0000000000
     26685       795  TIP3      H2              7.3032808507      -37.3602718975       27.4960962242  TIP3      595             0.0000000000
     26686       796  TIP3      OH2            11.8328308122      -36.7902234487       28.1546603925  TIP3      596             0.0000000000
     26687       796  TIP3      H1             12.2049574124      -36.7843284146       27.2594081291  TIP3      596             0.0000000000
     26688       796  TIP3      H2             11.9824338860      -37.7160904682       28.4240755997  TIP3      596             0.0000000000
     26689       797  TIP3      OH2            13.6540851212      -36.6516248383       24.6538896748  TIP3      597             0.0000000000
     26690       797  TIP3      H1             13.1017788381      -36.3662210627       23.9124644087  TIP3      597             0.0000000000
     26691       797  TIP3      H2             14.0345941736      -37.4558664401       24.2514189062  TIP3      597             0.0000000000
     26692       798  TIP3      OH2             0.5404335116      -21.9463750677       23.6354252667  TIP3      598             0.0000000000
     26693       798  TIP3      H1              0.0380398314      -21.8500341949       22.8095200642  TIP3      598             0.0000000000
     26694       798  TIP3      H2              0.3449370104      -21.0962602272       24.0529822147  TIP3      598             0.0000000000
     26695       799  TIP3      OH2             7.8461536229      -35.5149363163       23.6319829554  TIP3      599             0.0000000000
     26696       799  TIP3      H1              8.2458576949      -35.9172312853       24.4323016158  TIP3      599             0.0000000000
     26697       799  TIP3      H2              7.9114266819      -34.5676001825       23.8687361898  TIP3      599             0.0000000000
     26698       800  TIP3      OH2             1.7078714718      -37.2504406141       36.9547374825  TIP3      600             0.0000000000
     26699       800  TIP3      H1              1.7709159674      -38.1625753628       36.6191831689  TIP3      600             0.0000000000
     26700       800  TIP3      H2              2.6091947504      -37.1288947933       37.3234854667  TIP3      600             0.0000000000
     26701       801  TIP3      OH2             4.0899819626      -37.3854522043       38.1167113206  TIP3      601             0.0000000000
     26702       801  TIP3      H1              4.9189661633      -36.9739303876       37.8264873148  TIP3      601             0.0000000000
     26703       801  TIP3      H2              4.2026436571      -38.2817627173       37.7188817032  TIP3      601             0.0000000000
     26704       802  TIP3      OH2             2.4194611621      -21.0020848168       20.8647762747  TIP3      602             0.0000000000
     26705       802  TIP3      H1              2.6967542373      -20.9794119414       21.7852728832  TIP3      602             0.0000000000
     26706       802  TIP3      H2              3.2424875723      -20.7865179584       20.4108637858  TIP3      602             0.0000000000
     26707       803  TIP3      OH2            12.5621563900      -37.7778477549       38.6436453944  TIP3      603             0.0000000000
     26708       803  TIP3      H1             11.9843143949      -38.5271718792       38.8629620130  TIP3      603             0.0000000000
     26709       803  TIP3      H2             13.2117769487      -38.2767928741       38.1232689876  TIP3      603             0.0000000000
     26710       804  TIP3      OH2            15.9696457657      -22.1985499381       36.5387381834  TIP3      604             0.0000000000
     26711       804  TIP3      H1             15.2821459850      -22.2864890421       35.8407405576  TIP3      604             0.0000000000
     26712       804  TIP3      H2             15.6675011677      -21.3824372223       36.9648759180  TIP3      604             0.0000000000
     26713       805  TIP3      OH2            30.3499173983      -28.2430501524       26.8386795525  TIP3      605             0.0000000000
     26714       805  TIP3      H1             30.3700060922      -27.2646326332       26.7419023597  TIP3      605             0.0000000000
     26715       805  TIP3      H2             29.7009280636      -28.4710114458       26.1580966717  TIP3      605             0.0000000000
     26716       806  TIP3      OH2            29.0953797766      -29.5299738311       30.1637820497  TIP3      606             0.0000000000
     26717       806  TIP3      H1             29.2427185164      -29.9103116437       31.0676854420  TIP3      606             0.0000000000
     26718       806  TIP3      H2             28.1962959571      -29.1856255611       30.2029829686  TIP3      606             0.0000000000
     26719       807  TIP3      OH2            21.2200179880      -29.4023989750       31.6947873406  TIP3      607             0.0000000000
     26720       807  TIP3      H1             21.1595645165      -30.1136817593       32.3512542307  TIP3      607             0.0000000000
     26721       807  TIP3      H2             22.1211812207      -29.0905844333       31.8769203725  TIP3      607             0.0000000000
     26722       808  TIP3      OH2            32.7575890722      -26.1250058333       28.9687836587  TIP3      608             0.0000000000
     26723       808  TIP3      H1             32.6973863504      -26.8870617058       29.5615287859  TIP3      608             0.0000000000
     26724       808  TIP3      H2             32.6979030912      -25.3789317393       29.5882179414  TIP3      608             0.0000000000
     26725       809  TIP3      OH2            22.3886957510      -24.7799485778       30.0588955676  TIP3      609             0.0000000000
     26726       809  TIP3      H1             22.0246097863      -25.6580071534       29.8162548677  TIP3      609             0.0000000000
     26727       809  TIP3      H2             23.3276790933      -24.9648769583       29.8822367014  TIP3      609             0.0000000000
     26728       810  TIP3      OH2            19.0721306181      -31.3029546824       25.7655275175  TIP3      610             0.0000000000
     26729       810  TIP3      H1             18.4684393601      -30.6524112716       26.1466393748  TIP3      610             0.0000000000
     26730       810  TIP3      H2             18.4464057498      -31.8729962475       25.2828036750  TIP3      610             0.0000000000
     26731       811  TIP3      OH2            19.8007324930      -29.0829272862       28.2322288983  TIP3      611             0.0000000000
     26732       811  TIP3      H1             20.1331828030      -29.9999778072       28.3240119109  TIP3      611             0.0000000000
     26733       811  TIP3      H2             19.9522292311      -28.8347455001       27.3210565155  TIP3      611             0.0000000000
     26734       812  TIP3      OH2            29.9666433556      -20.5164559535       28.6015302347  TIP3      612             0.0000000000
     26735       812  TIP3      H1             30.5144640307      -21.2344548294       28.2025970831  TIP3      612             0.0000000000
     26736       812  TIP3      H2             29.5758244330      -20.9845197276       29.3438525884  TIP3      612             0.0000000000
     26737       813  TIP3      OH2            27.3041459258      -26.8110422575       31.1556875196  TIP3      613             0.0000000000
     26738       813  TIP3      H1             27.6021173538      -26.6899155591       30.2455020687  TIP3      613             0.0000000000
     26739       813  TIP3      H2             28.1478615456      -26.6078645942       31.6283656958  TIP3      613             0.0000000000
     26740       814  TIP3      OH2            35.9867516317      -34.8003527567       31.2189698752  TIP3      614             0.0000000000
     26741       814  TIP3      H1             36.2729714533      -34.1484365422       31.8772778109  TIP3      614             0.0000000000
     26742       814  TIP3      H2             36.3195048846      -34.4128559875       30.3905591455  TIP3      614             0.0000000000
     26743       815  TIP3      OH2            23.8023740756      -34.2267365238       27.8842128161  TIP3      615             0.0000000000
     26744       815  TIP3      H1             23.8455256160      -33.3825891060       27.3901677098  TIP3      615             0.0000000000
     26745       815  TIP3      H2             23.4875396657      -34.8473816089       27.1926854760  TIP3      615             0.0000000000
     26746       816  TIP3      OH2            20.3742614078      -31.7156147782       29.0977526293  TIP3      616             0.0000000000
     26747       816  TIP3      H1             21.1113405662      -32.0282678165       29.6576338004  TIP3      616             0.0000000000
     26748       816  TIP3      H2             20.5834369051      -32.1581743046       28.2555507361  TIP3      616             0.0000000000
     26749       817  TIP3      OH2            25.1692091807      -30.2522748590       28.5632995382  TIP3      617             0.0000000000
     26750       817  TIP3      H1             25.9483698323      -30.8204335914       28.6063513784  TIP3      617             0.0000000000
     26751       817  TIP3      H2             24.5428428669      -30.8804094248       28.1267447558  TIP3      617             0.0000000000
     26752       818  TIP3      OH2            36.8500929526      -33.7564709153       33.6103906423  TIP3      618             0.0000000000
     26753       818  TIP3      H1             36.2323820739      -33.0018073657       33.5028548840  TIP3      618             0.0000000000
     26754       818  TIP3      H2             36.5756210947      -34.0252434326       34.4937254141  TIP3      618             0.0000000000
     26755       819  TIP3      OH2            22.6556202805      -35.1747256782       32.2644592147  TIP3      619             0.0000000000
     26756       819  TIP3      H1             22.3301707535      -34.5183734503       31.6088433910  TIP3      619             0.0000000000
     26757       819  TIP3      H2             21.9405534196      -35.1619318813       32.9399444134  TIP3      619             0.0000000000
     26758       820  TIP3      OH2            29.7642879086      -25.5693332758       25.9737243419  TIP3      620             0.0000000000
     26759       820  TIP3      H1             29.7542563681      -25.5146647901       24.9913641350  TIP3      620             0.0000000000
     26760       820  TIP3      H2             29.3147904194      -24.7339397365       26.2089837364  TIP3      620             0.0000000000
     26761       821  TIP3      OH2            25.0046524466      -27.6293448017       32.2659802604  TIP3      621             0.0000000000
     26762       821  TIP3      H1             24.4618902554      -26.8767790010       32.5888759304  TIP3      621             0.0000000000
     26763       821  TIP3      H2             25.7671596110      -27.1751606841       31.8527185248  TIP3      621             0.0000000000
     26764       822  TIP3      OH2            22.5894427181      -33.1966168004       30.1402327157  TIP3      622             0.0000000000
     26765       822  TIP3      H1             23.2657177148      -32.6544397979       30.6076660177  TIP3      622             0.0000000000
     26766       822  TIP3      H2             23.1052890728      -33.5469503140       29.3817683773  TIP3      622             0.0000000000
     26767       823  TIP3      OH2            23.7247991900      -25.4566773953       33.1265364656  TIP3      623             0.0000000000
     26768       823  TIP3      H1             23.5628081582      -24.6882687106       32.5634930695  TIP3      623             0.0000000000
     26769       823  TIP3      H2             22.8630480961      -25.4882396443       33.6120120128  TIP3      623             0.0000000000
     26770       824  TIP3      OH2            19.6385414288      -25.9663679793       23.7419261142  TIP3      624             0.0000000000
     26771       824  TIP3      H1             18.9948249356      -25.4106309564       23.2837110230  TIP3      624             0.0000000000
     26772       824  TIP3      H2             19.9856020394      -25.2966811371       24.3837652144  TIP3      624             0.0000000000
     26773       825  TIP3      OH2            33.2425711668      -24.1101565859       30.7813839813  TIP3      625             0.0000000000
     26774       825  TIP3      H1             32.2987495483      -23.9359671223       30.9999117299  TIP3      625             0.0000000000
     26775       825  TIP3      H2             33.4994470763      -23.2259436853       30.4609987691  TIP3      625             0.0000000000
     26776       826  TIP3      OH2            33.8904416869      -36.5320745853       32.4555389091  TIP3      626             0.0000000000
     26777       826  TIP3      H1             33.1928138181      -36.2156965440       31.8499340357  TIP3      626             0.0000000000
     26778       826  TIP3      H2             34.6419670646      -36.5713649620       31.8353228475  TIP3      626             0.0000000000
     26779       827  TIP3      OH2            26.2541516921      -37.4063331718       29.1653415981  TIP3      627             0.0000000000
     26780       827  TIP3      H1             26.3912983449      -38.2563437774       29.6334297483  TIP3      627             0.0000000000
     26781       827  TIP3      H2             25.8981812787      -36.8313025973       29.8653734832  TIP3      627             0.0000000000
     26782       828  TIP3      OH2            31.4218806144      -22.4804236851       27.4744575828  TIP3      628             0.0000000000
     26783       828  TIP3      H1             31.6820388102      -23.3795765147       27.1886190360  TIP3      628             0.0000000000
     26784       828  TIP3      H2             32.0343472580      -21.9402667154       26.9438739686  TIP3      628             0.0000000000
     26785       829  TIP3      OH2            32.9654365047      -24.4879678464       26.0405292792  TIP3      629             0.0000000000
     26786       829  TIP3      H1             32.8936693439      -25.1311057741       25.2935966083  TIP3      629             0.0000000000
     26787       829  TIP3      H2             33.0472577048      -25.1040998009       26.7893969402  TIP3      629             0.0000000000
     26788       830  TIP3      OH2            34.1752890274      -26.0897524970       34.6060921366  TIP3      630             0.0000000000
     26789       830  TIP3      H1             34.3074142751      -26.6991525876       33.8423480840  TIP3      630             0.0000000000
     26790       830  TIP3      H2             34.2527293912      -25.2159685655       34.1689762532  TIP3      630             0.0000000000
     26791       831  TIP3      OH2            35.8582586167      -29.6806508563       32.3637532374  TIP3      631             0.0000000000
     26792       831  TIP3      H1             35.3488548900      -28.8424728147       32.3055664738  TIP3      631             0.0000000000
     26793       831  TIP3      H2             36.5850497607      -29.5104460752       31.7156716477  TIP3      631             0.0000000000
     26794       832  TIP3      OH2            32.2322148908      -28.9979049810       24.9058459502  TIP3      632             0.0000000000
     26795       832  TIP3      H1             31.5697787675      -28.7836475717       25.5902675337  TIP3      632             0.0000000000
     26796       832  TIP3      H2             32.8528719693      -29.5310798569       25.4174241530  TIP3      632             0.0000000000
     26797       833  TIP3      OH2            32.3523331235      -30.8322404582       34.3386711893  TIP3      633             0.0000000000
     26798       833  TIP3      H1             32.1228349503      -30.1470265728       34.9866237025  TIP3      633             0.0000000000
     26799       833  TIP3      H2             31.9278310476      -30.4104322643       33.5745123545  TIP3      633             0.0000000000
     26800       834  TIP3      OH2            24.0357696717      -28.2892024783       27.0080555784  TIP3      634             0.0000000000
     26801       834  TIP3      H1             23.6999229294      -28.6525643897       26.1586959081  TIP3      634             0.0000000000
     26802       834  TIP3      H2             24.5815426631      -29.0061595704       27.3916108653  TIP3      634             0.0000000000
     26803       835  TIP3      OH2            25.2908889959      -25.0449263959       29.9004811637  TIP3      635             0.0000000000
     26804       835  TIP3      H1             25.4526494104      -25.2846005868       28.9781752290  TIP3      635             0.0000000000
     26805       835  TIP3      H2             25.9424096627      -25.5766809504       30.3885964503  TIP3      635             0.0000000000
     26806       836  TIP3      OH2            23.8960896077      -29.4870535502       30.8685310016  TIP3      636             0.0000000000
     26807       836  TIP3      H1             24.3291860801      -29.5727719694       29.9873637884  TIP3      636             0.0000000000
     26808       836  TIP3      H2             24.4173456186      -28.7640597758       31.2822574039  TIP3      636             0.0000000000
     26809       837  TIP3      OH2            30.7829836796      -23.8638109056       31.6158192735  TIP3      637             0.0000000000
     26810       837  TIP3      H1             30.2679899114      -23.2009607524       32.0958617705  TIP3      637             0.0000000000
     26811       837  TIP3      H2             30.3985099052      -24.6677140209       32.0072492584  TIP3      637             0.0000000000
     26812       838  TIP3      OH2            25.3631094000      -25.0673597720       35.2062305400  TIP3      638             0.0000000000
     26813       838  TIP3      H1             24.6615632924      -24.6115868536       35.7148361408  TIP3      638             0.0000000000
     26814       838  TIP3      H2             24.8982390213      -25.1818837818       34.3423156670  TIP3      638             0.0000000000
     26815       839  TIP3      OH2            22.1559289563      -29.1788860693       34.5789505440  TIP3      639             0.0000000000
     26816       839  TIP3      H1             22.3816846207      -28.2839519227       34.8470457891  TIP3      639             0.0000000000
     26817       839  TIP3      H2             21.4561529167      -29.3874122435       35.2254009996  TIP3      639             0.0000000000
     26818       840  TIP3      OH2            28.6911873249      -23.1004144344       26.6645209809  TIP3      640             0.0000000000
     26819       840  TIP3      H1             29.3325575332      -22.6876225070       27.2617620452  TIP3      640             0.0000000000
     26820       840  TIP3      H2             28.6308844528      -22.4721323500       25.9503758526  TIP3      640             0.0000000000
     26821       841  TIP3      OH2            23.6102025983      -23.3460549197       36.3582910479  TIP3      641             0.0000000000
     26822       841  TIP3      H1             23.5287397742      -22.9311245623       35.4727472683  TIP3      641             0.0000000000
     26823       841  TIP3      H2             22.6666944944      -23.5514040660       36.5362329496  TIP3      641             0.0000000000
     26824       842  TIP3      OH2            34.8199905718      -37.5226073979       22.9589102796  TIP3      642             0.0000000000
     26825       842  TIP3      H1             34.0541282982      -37.0099161869       23.2792833311  TIP3      642             0.0000000000
     26826       842  TIP3      H2             35.3580310026      -36.8106179270       22.5499771400  TIP3      642             0.0000000000
     26827       843  TIP3      OH2            22.8078963964      -29.3011564781       24.6785697979  TIP3      643             0.0000000000
     26828       843  TIP3      H1             22.6217135686      -28.4611090988       24.1851640640  TIP3      643             0.0000000000
     26829       843  TIP3      H2             21.9109852658      -29.5922240734       24.8647346867  TIP3      643             0.0000000000
     26830       844  TIP3      OH2            19.3500794694      -26.5856959867       33.8538960455  TIP3      644             0.0000000000
     26831       844  TIP3      H1             19.0209755075      -26.8014079702       32.9774149908  TIP3      644             0.0000000000
     26832       844  TIP3      H2             19.6666051148      -27.4721462765       34.1285701105  TIP3      644             0.0000000000
     26833       845  TIP3      OH2            18.8293784659      -23.9991652363       30.2982678404  TIP3      645             0.0000000000
     26834       845  TIP3      H1             19.7839777454      -24.0179147823       30.4911964501  TIP3      645             0.0000000000
     26835       845  TIP3      H2             18.5597613937      -23.1627796515       30.7032504897  TIP3      645             0.0000000000
     26836       846  TIP3      OH2            36.9705149705      -23.3600155946       35.9516718484  TIP3      646             0.0000000000
     26837       846  TIP3      H1             36.9092556375      -24.3154488977       35.9090805162  TIP3      646             0.0000000000
     26838       846  TIP3      H2             36.1621906057      -23.2017363108       36.4892968338  TIP3      646             0.0000000000
     26839       847  TIP3      OH2            27.8721402373      -24.0408413158       35.2097435576  TIP3      647             0.0000000000
     26840       847  TIP3      H1             27.9857699581      -23.2737826622       35.7889730222  TIP3      647             0.0000000000
     26841       847  TIP3      H2             26.9127895111      -24.2730118226       35.2993599877  TIP3      647             0.0000000000
     26842       848  TIP3      OH2            28.8786817169      -19.9193841492       24.6827192503  TIP3      648             0.0000000000
     26843       848  TIP3      H1             28.2049434438      -20.5583681317       24.9419440900  TIP3      648             0.0000000000
     26844       848  TIP3      H2             28.5794149073      -19.0961006721       25.1308006192  TIP3      648             0.0000000000
     26845       849  TIP3      OH2            22.2176086965      -21.4422605396       26.7287149138  TIP3      649             0.0000000000
     26846       849  TIP3      H1             22.3233617366      -21.7546295901       27.6579958715  TIP3      649             0.0000000000
     26847       849  TIP3      H2             21.2812111512      -21.6169737888       26.5359451490  TIP3      649             0.0000000000
     26848       850  TIP3      OH2            31.3000935769      -20.5710057985       21.8013988662  TIP3      650             0.0000000000
     26849       850  TIP3      H1             31.9564405451      -21.1140886585       21.3311508857  TIP3      650             0.0000000000
     26850       850  TIP3      H2             30.7309430702      -21.2754505909       22.1454021673  TIP3      650             0.0000000000
     26851       851  TIP3      OH2            31.3436004297      -20.8958911992       24.9553159661  TIP3      651             0.0000000000
     26852       851  TIP3      H1             30.4631040347      -20.4940847408       24.8045481328  TIP3      651             0.0000000000
     26853       851  TIP3      H2             31.1629328366      -21.8326504098       24.7877808864  TIP3      651             0.0000000000
     26854       852  TIP3      OH2            33.8440736636      -31.7873876323       36.5265590142  TIP3      652             0.0000000000
     26855       852  TIP3      H1             33.2371621083      -31.6384634671       35.7655831629  TIP3      652             0.0000000000
     26856       852  TIP3      H2             34.2960776121      -32.6008249526       36.2145073907  TIP3      652             0.0000000000
     26857       853  TIP3      OH2            21.5119129778      -25.2722602916       34.5690236454  TIP3      653             0.0000000000
     26858       853  TIP3      H1             21.5706886002      -25.5801950477       35.4975947242  TIP3      653             0.0000000000
     26859       853  TIP3      H2             20.6230958752      -25.6326328960       34.3370562614  TIP3      653             0.0000000000
     26860       854  TIP3      OH2            24.3491646628      -36.0453799588       30.4905270957  TIP3      654             0.0000000000
     26861       854  TIP3      H1             23.6402577681      -35.8389165894       29.8567238356  TIP3      654             0.0000000000
     26862       854  TIP3      H2             23.9135555512      -35.7354205834       31.3175661852  TIP3      654             0.0000000000
     26863       855  TIP3      OH2            28.1875284127      -36.5779563202       34.1853647524  TIP3      655             0.0000000000
     26864       855  TIP3      H1             28.6025570699      -37.4595089234       34.3054143487  TIP3      655             0.0000000000
     26865       855  TIP3      H2             27.4410411765      -36.8526569310       33.6235130188  TIP3      655             0.0000000000
     26866       856  TIP3      OH2            31.8711964384      -33.5529966499       34.6191158014  TIP3      656             0.0000000000
     26867       856  TIP3      H1             31.2014578942      -33.7356029017       35.3142498079  TIP3      656             0.0000000000
     26868       856  TIP3      H2             31.9654878912      -32.5882104218       34.6945205416  TIP3      656             0.0000000000
     26869       857  TIP3      OH2            24.1680050486      -31.9037148127       31.8118529000  TIP3      657             0.0000000000
     26870       857  TIP3      H1             23.3631161095      -32.0047338623       32.3683926329  TIP3      657             0.0000000000
     26871       857  TIP3      H2             24.0451360716      -30.9732894685       31.5133430874  TIP3      657             0.0000000000
     26872       858  TIP3      OH2            24.0069587458      -31.7509037694       26.7924555675  TIP3      658             0.0000000000
     26873       858  TIP3      H1             23.0286775330      -31.8563234845       26.7223989552  TIP3      658             0.0000000000
     26874       858  TIP3      H2             24.2684515063      -31.6748721916       25.8655115387  TIP3      658             0.0000000000
     26875       859  TIP3      OH2            28.3839715785      -31.1027373193       36.7779502562  TIP3      659             0.0000000000
     26876       859  TIP3      H1             27.9624350590      -31.9616885016       37.0318736783  TIP3      659             0.0000000000
     26877       859  TIP3      H2             29.1386132886      -31.1101462841       37.3842795577  TIP3      659             0.0000000000
     26878       860  TIP3      OH2            21.7347230154      -31.9478229320       33.1379689785  TIP3      660             0.0000000000
     26879       860  TIP3      H1             21.9781203212      -31.4650229702       33.9408188261  TIP3      660             0.0000000000
     26880       860  TIP3      H2             21.3134726604      -32.7469451923       33.4881741730  TIP3      660             0.0000000000
     26881       861  TIP3      OH2            25.1691933835      -34.0407927246       20.3723170677  TIP3      661             0.0000000000
     26882       861  TIP3      H1             24.7865189818      -34.6072841028       21.0640536716  TIP3      661             0.0000000000
     26883       861  TIP3      H2             25.5280511681      -34.6866455521       19.7575885861  TIP3      661             0.0000000000
     26884       862  TIP3      OH2            18.6612370118      -34.3438027482       27.4542038177  TIP3      662             0.0000000000
     26885       862  TIP3      H1             19.3021191148      -34.3226240874       28.1810595586  TIP3      662             0.0000000000
     26886       862  TIP3      H2             19.1746597833      -34.6348639219       26.6915327944  TIP3      662             0.0000000000
     26887       863  TIP3      OH2            19.9358342264      -34.0085798625       23.3194055048  TIP3      663             0.0000000000
     26888       863  TIP3      H1             20.4517776752      -34.0549091208       22.5075401877  TIP3      663             0.0000000000
     26889       863  TIP3      H2             19.3773483510      -33.2275327867       23.1900837908  TIP3      663             0.0000000000
     26890       864  TIP3      OH2            29.5953920056      -30.6216730641       32.6263432297  TIP3      664             0.0000000000
     26891       864  TIP3      H1             30.4301823098      -31.0792606200       32.4667921285  TIP3      664             0.0000000000
     26892       864  TIP3      H2             29.1111711641      -31.2672240060       33.1994184083  TIP3      664             0.0000000000
     26893       865  TIP3      OH2            21.4678279824      -32.5869147905       26.5182182082  TIP3      665             0.0000000000
     26894       865  TIP3      H1             20.6496492235      -32.3706218701       26.0309093079  TIP3      665             0.0000000000
     26895       865  TIP3      H2             21.6050660064      -33.5249949366       26.3121164222  TIP3      665             0.0000000000
     26896       866  TIP3      OH2            34.0766395971      -19.7161067663       37.3818008934  TIP3      666             0.0000000000
     26897       866  TIP3      H1             34.4945972847      -19.4508955258       36.5371872908  TIP3      666             0.0000000000
     26898       866  TIP3      H2             34.7942696166      -19.5112613270       37.9991521359  TIP3      666             0.0000000000
     26899       867  TIP3      OH2            21.5542926857      -26.7959921080       36.9771840064  TIP3      667             0.0000000000
     26900       867  TIP3      H1             22.3466478190      -26.8061933105       37.5575653091  TIP3      667             0.0000000000
     26901       867  TIP3      H2             20.8807271420      -27.2073771975       37.5412659682  TIP3      667             0.0000000000
     26902       868  TIP3      OH2            22.6125337675      -35.3349630397       25.6170525283  TIP3      668             0.0000000000
     26903       868  TIP3      H1             22.0695103481      -36.0198864544       26.0820157439  TIP3      668             0.0000000000
     26904       868  TIP3      H2             23.2172182064      -35.8919122666       25.1069040751  TIP3      668             0.0000000000
     26905       869  TIP3      OH2            26.4690715308      -33.4279559642       31.9957808242  TIP3      669             0.0000000000
     26906       869  TIP3      H1             25.8205640926      -32.6950273843       31.9664686790  TIP3      669             0.0000000000
     26907       869  TIP3      H2             27.2360441282      -32.9923616905       32.4001742729  TIP3      669             0.0000000000
     26908       870  TIP3      OH2            26.6909224255      -26.8394839812       23.8333586383  TIP3      670             0.0000000000
     26909       870  TIP3      H1             26.2086057686      -27.6608851060       23.7823320137  TIP3      670             0.0000000000
     26910       870  TIP3      H2             26.5699763234      -26.5949798472       24.7817550318  TIP3      670             0.0000000000
     26911       871  TIP3      OH2            34.3346520332      -27.5081215351       32.4043041852  TIP3      671             0.0000000000
     26912       871  TIP3      H1             34.8019546672      -27.0500082744       31.6762863846  TIP3      671             0.0000000000
     26913       871  TIP3      H2             33.4590073001      -27.6819067684       32.0083768383  TIP3      671             0.0000000000
     26914       872  TIP3      OH2            28.3474344793      -26.7026809721       34.9668119078  TIP3      672             0.0000000000
     26915       872  TIP3      H1             28.0034021642      -26.9160252765       35.8450552036  TIP3      672             0.0000000000
     26916       872  TIP3      H2             28.1614767268      -25.7410271606       34.9562490176  TIP3      672             0.0000000000
     26917       873  TIP3      OH2            22.0614844985      -27.2991687921       29.0786675940  TIP3      673             0.0000000000
     26918       873  TIP3      H1             22.4986161253      -27.6223044129       28.2763480199  TIP3      673             0.0000000000
     26919       873  TIP3      H2             22.2311271429      -28.0175450454       29.7098853424  TIP3      673             0.0000000000
     26920       874  TIP3      OH2            29.0121555007      -25.2391025594       23.3357260330  TIP3      674             0.0000000000
     26921       874  TIP3      H1             28.5059798192      -24.4152422050       23.2322563885  TIP3      674             0.0000000000
     26922       874  TIP3      H2             28.3503101887      -25.9534124852       23.2868090188  TIP3      674             0.0000000000
     26923       875  TIP3      OH2            19.1360819284      -29.2384680648       34.9310520420  TIP3      675             0.0000000000
     26924       875  TIP3      H1             18.9396251625      -29.8921365488       35.6290412919  TIP3      675             0.0000000000
     26925       875  TIP3      H2             18.6436337737      -29.6084767669       34.1713141219  TIP3      675             0.0000000000
     26926       876  TIP3      OH2            26.1612608468      -29.6304616277       36.6167222469  TIP3      676             0.0000000000
     26927       876  TIP3      H1             25.6303278529      -30.2612249187       36.1257050892  TIP3      676             0.0000000000
     26928       876  TIP3      H2             27.0527115988      -30.0484634772       36.6138944504  TIP3      676             0.0000000000
     26929       877  TIP3      OH2            31.1157848747      -24.4263341704       35.1368052926  TIP3      677             0.0000000000
     26930       877  TIP3      H1             30.2914963380      -24.4612109954       34.6458873377  TIP3      677             0.0000000000
     26931       877  TIP3      H2             30.8392552645      -23.9273258800       35.9327609961  TIP3      677             0.0000000000
     26932       878  TIP3      OH2            36.9740203718      -32.4058693051       23.3069804687  TIP3      678             0.0000000000
     26933       878  TIP3      H1             36.3091114577      -32.5535250783       22.6031398025  TIP3      678             0.0000000000
     26934       878  TIP3      H2             37.4136805760      -31.6377394053       22.9141468474  TIP3      678             0.0000000000
     26935       879  TIP3      OH2            36.4200777201      -26.4092083644       35.9228035495  TIP3      679             0.0000000000
     26936       879  TIP3      H1             35.5230436871      -26.1545665696       35.5841454642  TIP3      679             0.0000000000
     26937       879  TIP3      H2             36.9258499735      -26.5375874746       35.0939229113  TIP3      679             0.0000000000
     26938       880  TIP3      OH2            34.9345939281      -23.7228920316       23.5475096275  TIP3      680             0.0000000000
     26939       880  TIP3      H1             34.3270807809      -24.4039627864       23.8908138533  TIP3      680             0.0000000000
     26940       880  TIP3      H2             34.9716359002      -23.9540648906       22.6133272722  TIP3      680             0.0000000000
     26941       881  TIP3      OH2            32.1830400790      -28.4325165483       30.6720503815  TIP3      681             0.0000000000
     26942       881  TIP3      H1             31.2519649198      -28.4794024695       30.4035817091  TIP3      681             0.0000000000
     26943       881  TIP3      H2             32.5008596193      -29.2230755599       30.1838977247  TIP3      681             0.0000000000
     26944       882  TIP3      OH2            24.5060906265      -23.9447559879       26.6711635709  TIP3      682             0.0000000000
     26945       882  TIP3      H1             24.6386936357      -23.0063537594       26.4190524195  TIP3      682             0.0000000000
     26946       882  TIP3      H2             23.5640774297      -24.0483553368       26.4992466449  TIP3      682             0.0000000000
     26947       883  TIP3      OH2            25.7696727172      -26.3380112461       26.2876863382  TIP3      683             0.0000000000
     26948       883  TIP3      H1             25.3587376640      -25.4505840698       26.3922622944  TIP3      683             0.0000000000
     26949       883  TIP3      H2             25.0996717704      -26.9471893652       26.6588536097  TIP3      683             0.0000000000
     26950       884  TIP3      OH2            26.4854408544      -22.3040217189       33.1480192305  TIP3      684             0.0000000000
     26951       884  TIP3      H1             27.0996593960      -21.6087071481       32.8642013701  TIP3      684             0.0000000000
     26952       884  TIP3      H2             27.0002926693      -22.7696083318       33.8360552766  TIP3      684             0.0000000000
     26953       885  TIP3      OH2            24.7327215812      -21.3507846102       25.7503842638  TIP3      685             0.0000000000
     26954       885  TIP3      H1             23.7884747897      -21.3097002539       26.0298634297  TIP3      685             0.0000000000
     26955       885  TIP3      H2             25.0444881237      -20.5347402800       26.1966158765  TIP3      685             0.0000000000
     26956       886  TIP3      OH2            29.5858750444      -26.3970445784       32.5081964522  TIP3      686             0.0000000000
     26957       886  TIP3      H1             29.1908699866      -26.7441892309       33.3525899047  TIP3      686             0.0000000000
     26958       886  TIP3      H2             30.3593924760      -26.9664380997       32.3927366506  TIP3      686             0.0000000000
     26959       887  TIP3      OH2            32.9022354721      -21.9564069032       34.7530181410  TIP3      687             0.0000000000
     26960       887  TIP3      H1             32.0048921971      -22.3563007584       34.7817448772  TIP3      687             0.0000000000
     26961       887  TIP3      H2             32.8358404856      -21.3262388098       33.9985898380  TIP3      687             0.0000000000
     26962       888  TIP3      OH2            20.8319223493      -34.7576854070       34.2758981453  TIP3      688             0.0000000000
     26963       888  TIP3      H1             20.1780400723      -34.1062981336       34.5891772057  TIP3      688             0.0000000000
     26964       888  TIP3      H2             20.4344923951      -35.6017875050       34.5511725229  TIP3      688             0.0000000000
     26965       889  TIP3      OH2            33.3340737384      -26.1001152741       23.8238982844  TIP3      689             0.0000000000
     26966       889  TIP3      H1             32.7748569729      -26.8575110139       23.5638701274  TIP3      689             0.0000000000
     26967       889  TIP3      H2             34.2242366269      -26.5122817033       23.7930865726  TIP3      689             0.0000000000
     26968       890  TIP3      OH2            20.5013387307      -22.7532966252       32.6456459918  TIP3      690             0.0000000000
     26969       890  TIP3      H1             21.0919163593      -23.5111679252       32.7656226908  TIP3      690             0.0000000000
     26970       890  TIP3      H2             20.7130013045      -22.2504928892       33.4421551027  TIP3      690             0.0000000000
     26971       891  TIP3      OH2            25.4472661817      -24.5975315768       22.4920995736  TIP3      691             0.0000000000
     26972       891  TIP3      H1             25.9065195035      -25.2472874887       23.0561254370  TIP3      691             0.0000000000
     26973       891  TIP3      H2             25.5006622895      -23.7725460734       22.9901872065  TIP3      691             0.0000000000
     26974       892  TIP3      OH2            21.9428843314      -27.3709837281       23.0034298152  TIP3      692             0.0000000000
     26975       892  TIP3      H1             21.1199581407      -26.8957206940       23.2761544330  TIP3      692             0.0000000000
     26976       892  TIP3      H2             22.2704001381      -26.7539412188       22.3234604899  TIP3      692             0.0000000000
     26977       893  TIP3      OH2            29.7509307319      -34.6718204008       33.1908984622  TIP3      693             0.0000000000
     26978       893  TIP3      H1             30.3991003863      -34.7681683678       33.9106802353  TIP3      693             0.0000000000
     26979       893  TIP3      H2             29.1845946690      -35.4408219368       33.3837518457  TIP3      693             0.0000000000
     26980       894  TIP3      OH2            28.1345685314      -22.5504687285       23.2275046502  TIP3      694             0.0000000000
     26981       894  TIP3      H1             27.2008670431      -22.2814937829       23.3525374956  TIP3      694             0.0000000000
     26982       894  TIP3      H2             28.2246371136      -22.4712028808       22.2506813645  TIP3      694             0.0000000000
     26983       895  TIP3      OH2            28.3307940669      -32.2759208454       34.3133279775  TIP3      695             0.0000000000
     26984       895  TIP3      H1             28.4319450815      -31.8513009889       35.2003289209  TIP3      695             0.0000000000
     26985       895  TIP3      H2             28.6782056890      -33.1790378829       34.4238179596  TIP3      695             0.0000000000
     26986       896  TIP3      OH2            25.6061039976      -21.8180069240       23.3013958410  TIP3      696             0.0000000000
     26987       896  TIP3      H1             24.8747484812      -21.3940727799       22.8416772870  TIP3      696             0.0000000000
     26988       896  TIP3      H2             25.2789790249      -21.7382861638       24.2262254811  TIP3      696             0.0000000000
     26989       897  TIP3      OH2            24.2255420710      -35.2577201886       22.6349105825  TIP3      697             0.0000000000
     26990       897  TIP3      H1             24.0585955353      -34.5585236017       23.2789022527  TIP3      697             0.0000000000
     26991       897  TIP3      H2             25.0297607936      -35.6599244748       23.0037169114  TIP3      697             0.0000000000
     26992       898  TIP3      OH2            34.2766998706      -34.3896346440       35.0771501291  TIP3      698             0.0000000000
     26993       898  TIP3      H1             33.3554478901      -34.0924034769       34.9257526436  TIP3      698             0.0000000000
     26994       898  TIP3      H2             34.4005874034      -34.9559532819       34.3002105109  TIP3      698             0.0000000000
     26995       899  TIP3      OH2            32.4364382951      -30.8824302069       29.2795604387  TIP3      699             0.0000000000
     26996       899  TIP3      H1             31.9169116541      -31.5979162149       28.9090886776  TIP3      699             0.0000000000
     26997       899  TIP3      H2             33.1486914312      -31.3704472444       29.7641550715  TIP3      699             0.0000000000
     26998       900  TIP3      OH2            34.1853212063      -21.4935264228       30.7315562739  TIP3      700             0.0000000000
     26999       900  TIP3      H1             34.2069156445      -20.8187729243       30.0145413542  TIP3      700             0.0000000000
     27000       900  TIP3      H2             35.1256322245      -21.4738458442       31.0063070631  TIP3      700             0.0000000000
     27001       901  TIP3      OH2            21.1898340770      -36.7966194369       29.8297238812  TIP3      701             0.0000000000
     27002       901  TIP3      H1             21.1357783676      -37.0056818175       28.8802060545  TIP3      701             0.0000000000
     27003       901  TIP3      H2             21.3023257069      -37.7218630718       30.1376793152  TIP3      701             0.0000000000
     27004       902  TIP3      OH2            20.3029777303      -23.8714798777       25.1611876799  TIP3      702             0.0000000000
     27005       902  TIP3      H1             20.0061562800      -23.7262124734       26.0699029893  TIP3      702             0.0000000000
     27006       902  TIP3      H2             20.2836996895      -22.9827196865       24.7684967026  TIP3      702             0.0000000000
     27007       903  TIP3      OH2            19.4435037484      -20.7135051870       37.1072499792  TIP3      703             0.0000000000
     27008       903  TIP3      H1             20.1003499956      -20.7992694008       37.8300909575  TIP3      703             0.0000000000
     27009       903  TIP3      H2             19.2280248602      -21.6551744506       36.9449365802  TIP3      703             0.0000000000
     27010       904  TIP3      OH2            24.4120855429      -21.7450743692       38.5000896568  TIP3      704             0.0000000000
     27011       904  TIP3      H1             25.2178078417      -22.2201695699       38.7788775207  TIP3      704             0.0000000000
     27012       904  TIP3      H2             24.2100326410      -22.2069501196       37.6673124604  TIP3      704             0.0000000000
     27013       905  TIP3      OH2            28.4213039743      -22.6215110262       20.5979079446  TIP3      705             0.0000000000
     27014       905  TIP3      H1             27.6922312282      -22.9375510432       20.0486060202  TIP3      705             0.0000000000
     27015       905  TIP3      H2             29.2052993753      -23.0013953942       20.1739431503  TIP3      705             0.0000000000
     27016       906  TIP3      OH2            30.5665929918      -23.2234650895       37.5740077297  TIP3      706             0.0000000000
     27017       906  TIP3      H1             30.2541792650      -24.1158578869       37.8627519921  TIP3      706             0.0000000000
     27018       906  TIP3      H2             31.4345068470      -23.2027795293       38.0240205018  TIP3      706             0.0000000000
     27019       907  TIP3      OH2            19.1250059584      -26.9270600202       38.1764752139  TIP3      707             0.0000000000
     27020       907  TIP3      H1             18.8259971391      -27.8515161015       38.1133083802  TIP3      707             0.0000000000
     27021       907  TIP3      H2             18.7642144169      -26.5718504533       37.3253408768  TIP3      707             0.0000000000
     27022       908  TIP3      OH2            26.0093115208      -27.0001045575       36.9562133635  TIP3      708             0.0000000000
     27023       908  TIP3      H1             25.8394765393      -26.4505515620       36.1642636628  TIP3      708             0.0000000000
     27024       908  TIP3      H2             25.9021782113      -27.9301993499       36.6333688241  TIP3      708             0.0000000000
     27025       909  TIP3      OH2            31.8194067336      -27.4131970101       35.0378224995  TIP3      709             0.0000000000
     27026       909  TIP3      H1             32.7355479614      -27.0473052350       35.0170156959  TIP3      709             0.0000000000
     27027       909  TIP3      H2             31.3779246059      -26.5979474437       35.3378578519  TIP3      709             0.0000000000
     27028       910  TIP3      OH2            20.8063938535      -29.8790437650       37.6626106880  TIP3      710             0.0000000000
     27029       910  TIP3      H1             21.2456246613      -30.7226315569       37.8506361936  TIP3      710             0.0000000000
     27030       910  TIP3      H2             21.0555162599      -29.3371997003       38.4333138589  TIP3      710             0.0000000000
     27031       911  TIP3      OH2            24.1241576779      -30.9122438394       34.4656441460  TIP3      711             0.0000000000
     27032       911  TIP3      H1             23.3912287698      -30.2707025353       34.4717740544  TIP3      711             0.0000000000
     27033       911  TIP3      H2             24.8216628753      -30.4121374990       34.0042663110  TIP3      711             0.0000000000
     27034       912  TIP3      OH2            29.4086151220      -28.1139334825       38.2299275072  TIP3      712             0.0000000000
     27035       912  TIP3      H1             30.1391957884      -28.4881079409       37.7089186591  TIP3      712             0.0000000000
     27036       912  TIP3      H2             29.1127655290      -28.9265095764       38.6841971069  TIP3      712             0.0000000000
     27037       913  TIP3      OH2            25.0210860308      -33.1051529086       35.6821109861  TIP3      713             0.0000000000
     27038       913  TIP3      H1             25.1703190963      -33.7574568973       34.9655523239  TIP3      713             0.0000000000
     27039       913  TIP3      H2             24.9242660277      -32.2868548921       35.1438010217  TIP3      713             0.0000000000
     27040       914  TIP3      OH2            24.9582590330      -34.8555524211       33.6625736101  TIP3      714             0.0000000000
     27041       914  TIP3      H1             25.5704184189      -34.4292079433       33.0154813900  TIP3      714             0.0000000000
     27042       914  TIP3      H2             24.1106939835      -34.8158035283       33.1759288545  TIP3      714             0.0000000000
     27043       915  TIP3      OH2            26.4747460584      -29.5903046464       33.3757724904  TIP3      715             0.0000000000
     27044       915  TIP3      H1             27.3965159774      -29.3118347495       33.3769488066  TIP3      715             0.0000000000
     27045       915  TIP3      H2             26.0036914267      -28.7907653648       33.0525261745  TIP3      715             0.0000000000
     27046       916  TIP3      OH2            31.1783549702      -32.1792686488       38.6249255452  TIP3      716             0.0000000000
     27047       916  TIP3      H1             31.5814989716      -33.0455878351       38.5000624063  TIP3      716             0.0000000000
     27048       916  TIP3      H2             31.9302330252      -31.5754005852       38.6861122962  TIP3      716             0.0000000000
     27049       917  TIP3      OH2            32.0993748321      -29.0226051201       37.1392256085  TIP3      717             0.0000000000
     27050       917  TIP3      H1             31.8461588087      -28.4761230071       36.3633317957  TIP3      717             0.0000000000
     27051       917  TIP3      H2             32.9993290686      -29.3216497813       36.9101351820  TIP3      717             0.0000000000
     27052       918  TIP3      OH2            23.2678864267      -32.3329757077       37.7275425396  TIP3      718             0.0000000000
     27053       918  TIP3      H1             22.4208830570      -32.8037163840       37.5667082145  TIP3      718             0.0000000000
     27054       918  TIP3      H2             23.8436055766      -32.7086671898       37.0229931766  TIP3      718             0.0000000000
     27055       919  TIP3      OH2            25.7071205721      -37.3221024738       33.4043647304  TIP3      719             0.0000000000
     27056       919  TIP3      H1             25.5553118069      -36.3490189639       33.5329118535  TIP3      719             0.0000000000
     27057       919  TIP3      H2             24.8003336469      -37.6078115119       33.2248820279  TIP3      719             0.0000000000
     27058       920  TIP3      OH2            27.1609275986      -33.3258096206       37.6780055236  TIP3      720             0.0000000000
     27059       920  TIP3      H1             26.5946293262      -33.5153845014       38.4471181718  TIP3      720             0.0000000000
     27060       920  TIP3      H2             26.5256297802      -33.5213071812       36.9735994734  TIP3      720             0.0000000000
     27061       921  TIP3      OH2            30.1948873586      -34.1623285554       36.5558777601  TIP3      721             0.0000000000
     27062       921  TIP3      H1             29.2878786489      -34.4110159365       36.7413577090  TIP3      721             0.0000000000
     27063       921  TIP3      H2             30.6959624036      -34.7282007191       37.1848101063  TIP3      721             0.0000000000
     27064       922  TIP3      OH2            31.7445829464      -35.3361418130       38.7149493397  TIP3      722             0.0000000000
     27065       922  TIP3      H1             31.6180686658      -36.3146934932       38.8530196926  TIP3      722             0.0000000000
     27066       922  TIP3      H2             31.4174281476      -35.0236218389       39.5897730046  TIP3      722             0.0000000000
     27067       923  TIP3      OH2            21.1949325681      -34.1055852302       37.7835646755  TIP3      723             0.0000000000
     27068       923  TIP3      H1             21.2302624226      -34.8868402261       37.2228448822  TIP3      723             0.0000000000
     27069       923  TIP3      H2             21.1088169209      -34.5013226190       38.6826264323  TIP3      723             0.0000000000
     27070       924  TIP3      OH2            25.8891395866      -37.5291575530       36.2461353572  TIP3      724             0.0000000000
     27071       924  TIP3      H1             25.7592001255      -38.5037696374       36.2876367477  TIP3      724             0.0000000000
     27072       924  TIP3      H2             26.1562740391      -37.3875258637       35.3184769988  TIP3      724             0.0000000000
     27073       925  TIP3      OH2            26.4727011913      -36.9819078612       38.9429494156  TIP3      725             0.0000000000
     27074       925  TIP3      H1             26.4718602032      -37.2457900607       38.0044764352  TIP3      725             0.0000000000
     27075       925  TIP3      H2             26.0455842358      -36.1109911861       38.9022948293  TIP3      725             0.0000000000
     27076       926  TIP3      OH2            19.3913588307      -21.8847870073       28.1269482150  TIP3      726             0.0000000000
     27077       926  TIP3      H1             18.6928573300      -22.4158645414       28.5452352668  TIP3      726             0.0000000000
     27078       926  TIP3      H2             19.9039839163      -21.5780440550       28.9024152200  TIP3      726             0.0000000000
     27079       927  TIP3      OH2            36.9813943157      -21.0881696943       31.4462473953  TIP3      727             0.0000000000
     27080       927  TIP3      H1             37.0799766146      -21.4053083528       32.3570371479  TIP3      727             0.0000000000
     27081       927  TIP3      H2             36.8223035449      -20.1337349155       31.6196652668  TIP3      727             0.0000000000
     27082       928  TIP3      OH2            36.2097272298      -21.5318356089       34.0870757034  TIP3      728             0.0000000000
     27083       928  TIP3      H1             35.6717305174      -22.2115934887       33.6201397768  TIP3      728             0.0000000000
     27084       928  TIP3      H2             36.6221908090      -22.1361076548       34.7476044514  TIP3      728             0.0000000000
     27085       929  TIP3      OH2            34.7590454849      -25.7137219381       39.0616116612  TIP3      729             0.0000000000
     27086       929  TIP3      H1             33.8937028104      -25.5734535049       39.5019495232  TIP3      729             0.0000000000
     27087       929  TIP3      H2             35.1016242054      -24.8060322251       39.0384213986  TIP3      729             0.0000000000
     27088       930  TIP3      OH2            36.0005005831      -27.1299305862       24.1064983311  TIP3      730             0.0000000000
     27089       930  TIP3      H1             36.9146084726      -26.8341135996       24.2139505696  TIP3      730             0.0000000000
     27090       930  TIP3      H2             35.9627585327      -27.8842672276       24.7268107684  TIP3      730             0.0000000000
     27091       931  TIP3      OH2            36.2386128940      -29.0942587418       26.1188867913  TIP3      731             0.0000000000
     27092       931  TIP3      H1             35.3777392575      -29.5400306089       26.2649432712  TIP3      731             0.0000000000
     27093       931  TIP3      H2             36.6154750228      -29.1187106322       27.0062325982  TIP3      731             0.0000000000
     27094       932  TIP3      OH2            36.3653388044      -26.5776036119       30.9018872916  TIP3      732             0.0000000000
     27095       932  TIP3      H1             37.3089135657      -26.4973033163       30.6870794005  TIP3      732             0.0000000000
     27096       932  TIP3      H2             36.1510921448      -25.6280032193       30.7219734998  TIP3      732             0.0000000000
     27097       933  TIP3      OH2            34.6299004322      -23.6434121576       33.3262542989  TIP3      733             0.0000000000
     27098       933  TIP3      H1             33.8701294047      -23.2463108499       33.7940259592  TIP3      733             0.0000000000
     27099       933  TIP3      H2             34.2848451719      -23.7616897005       32.4170651494  TIP3      733             0.0000000000
     27100       934  TIP3      OH2            35.5538517341      -32.2895825552       21.0847122799  TIP3      734             0.0000000000
     27101       934  TIP3      H1             35.6728685405      -31.4279122855       20.5977675977  TIP3      734             0.0000000000
     27102       934  TIP3      H2             35.4819245250      -32.8982931173       20.3485948966  TIP3      734             0.0000000000
     27103       935  TIP3      OH2            33.9880697126      -30.5295652878       26.6297364906  TIP3      735             0.0000000000
     27104       935  TIP3      H1             33.9415869268      -31.3736771012       26.1170971946  TIP3      735             0.0000000000
     27105       935  TIP3      H2             33.8900969191      -30.7887023930       27.5652537357  TIP3      735             0.0000000000
     27106       936  TIP3      OH2            19.0846119623      -28.3708136750       30.6733502823  TIP3      736             0.0000000000
     27107       936  TIP3      H1             19.1316363803      -28.6357721727       29.7270275940  TIP3      736             0.0000000000
     27108       936  TIP3      H2             19.9735705393      -28.7344940244       30.9227862820  TIP3      736             0.0000000000
     27109       937  TIP3      OH2            34.9858270584      -28.7043162954       36.2884831013  TIP3      737             0.0000000000
     27110       937  TIP3      H1             35.6643274938      -29.3616172442       36.0625365762  TIP3      737             0.0000000000
     27111       937  TIP3      H2             35.4842760172      -27.8580670662       36.2329455401  TIP3      737             0.0000000000
     27112       938  TIP3      OH2            36.4427093059      -30.9060406725       36.5214141539  TIP3      738             0.0000000000
     27113       938  TIP3      H1             35.4755158158      -30.8662068681       36.6980332438  TIP3      738             0.0000000000
     27114       938  TIP3      H2             36.6477957591      -31.8074637063       36.8658933083  TIP3      738             0.0000000000
     27115       939  TIP3      OH2            34.1363029903      -32.7655133075       24.9822688889  TIP3      739             0.0000000000
     27116       939  TIP3      H1             34.3225236569      -33.7045754796       25.2200315495  TIP3      739             0.0000000000
     27117       939  TIP3      H2             34.8146797872      -32.5851066688       24.3231381438  TIP3      739             0.0000000000
     27118       940  TIP3      OH2            34.1001884496      -32.4316126220       30.5598259947  TIP3      740             0.0000000000
     27119       940  TIP3      H1             35.0278481356      -32.4364229483       30.2397992658  TIP3      740             0.0000000000
     27120       940  TIP3      H2             34.2536785202      -32.6210442713       31.4983331781  TIP3      740             0.0000000000
     27121       941  TIP3      OH2            34.8290597544      -31.9529301332       33.2501251426  TIP3      741             0.0000000000
     27122       941  TIP3      H1             33.9490516752      -31.7526157327       33.6137032210  TIP3      741             0.0000000000
     27123       941  TIP3      H2             35.1039247471      -31.0663705982       32.9301034175  TIP3      741             0.0000000000
     27124       942  TIP3      OH2            18.9818807973      -33.3528906811       36.6070443097  TIP3      742             0.0000000000
     27125       942  TIP3      H1             19.8095044646      -33.4492824862       37.1345413420  TIP3      742             0.0000000000
     27126       942  TIP3      H2             18.4623563112      -34.1360738414       36.9041188915  TIP3      742             0.0000000000
     27127       943  TIP3      OH2            37.4218632465      -37.3375506632       38.7985521061  TIP3      743             0.0000000000
     27128       943  TIP3      H1             38.2495940417      -37.3897003418       38.3090700396  TIP3      743             0.0000000000
     27129       943  TIP3      H2             36.8445262971      -36.8572489210       38.1666835065  TIP3      743             0.0000000000
     27130       944  TIP3      OH2            34.6760121987      -35.4583387775       25.3987789776  TIP3      744             0.0000000000
     27131       944  TIP3      H1             34.9156634183      -36.1171548578       26.0874489230  TIP3      744             0.0000000000
     27132       944  TIP3      H2             33.8408775401      -35.8428995579       25.0606131710  TIP3      744             0.0000000000
     27133       945  TIP3      OH2            19.9945281335      -34.3882058920       30.1686165067  TIP3      745             0.0000000000
     27134       945  TIP3      H1             20.1333123821      -35.3522194400       30.2912405325  TIP3      745             0.0000000000
     27135       945  TIP3      H2             20.9159567782      -34.0852143705       30.0663581218  TIP3      745             0.0000000000
     27136       946  TIP3      OH2            18.3229602828      -31.6316249243       30.8022145321  TIP3      746             0.0000000000
     27137       946  TIP3      H1             18.9829780047      -31.8814901490       30.1146265747  TIP3      746             0.0000000000
     27138       946  TIP3      H2             18.8819013005      -31.0903969056       31.3653842710  TIP3      746             0.0000000000
     27139       947  TIP3      OH2            36.0825005455      -35.6448620675       37.1949176109  TIP3      747             0.0000000000
     27140       947  TIP3      H1             35.2890474221      -35.1849563857       37.5737054703  TIP3      747             0.0000000000
     27141       947  TIP3      H2             35.7178363200      -35.9091537601       36.3171101403  TIP3      747             0.0000000000
     27142       948  TIP3      OH2            36.2608035319      -35.7205354635       21.6333191668  TIP3      748             0.0000000000
     27143       948  TIP3      H1             36.8967883662      -36.0994425822       21.0180220462  TIP3      748             0.0000000000
     27144       948  TIP3      H2             36.2935112725      -34.7884169584       21.4067979230  TIP3      748             0.0000000000
     27145       949  TIP3      OH2            18.9006759294      -36.1987316196       24.8553493441  TIP3      749             0.0000000000
     27146       949  TIP3      H1             17.9381338723      -36.1383902021       24.7638088709  TIP3      749             0.0000000000
     27147       949  TIP3      H2             19.1670472419      -35.5389112307       24.1784084484  TIP3      749             0.0000000000
     27148       950  TIP3      OH2            33.7222499249      -20.9254009141       26.8811669750  TIP3      750             0.0000000000
     27149       950  TIP3      H1             34.0822146248      -21.7755948855       26.5662300855  TIP3      750             0.0000000000
     27150       950  TIP3      H2             34.2895100489      -20.7658098250       27.6588930811  TIP3      750             0.0000000000
     27151       951  TIP3      OH2            18.7822677301      -36.6959089128       32.9391887590  TIP3      751             0.0000000000
     27152       951  TIP3      H1             18.1391142870      -36.5555824075       33.6576124547  TIP3      751             0.0000000000
     27153       951  TIP3      H2             18.4597531454      -36.0330034323       32.2859614208  TIP3      751             0.0000000000
     27154       952  TIP3      OH2            20.9663320027      -23.8922978223       37.0501232255  TIP3      752             0.0000000000
     27155       952  TIP3      H1             20.0872573501      -23.6704178568       36.6932528797  TIP3      752             0.0000000000
     27156       952  TIP3      H2             20.7718502563      -24.4146205264       37.8306088698  TIP3      752             0.0000000000
     27157       953  TIP3      OH2            23.8775062909      -22.3385511587       33.7992410311  TIP3      753             0.0000000000
     27158       953  TIP3      H1             23.8948120311      -21.4592273378       33.3715117135  TIP3      753             0.0000000000
     27159       953  TIP3      H2             24.8179637590      -22.5906000847       33.7200204510  TIP3      753             0.0000000000
     27160       954  TIP3      OH2            27.9230196261      -21.3199332311       36.2228118609  TIP3      754             0.0000000000
     27161       954  TIP3      H1             28.0443033338      -21.5862428427       37.1540838809  TIP3      754             0.0000000000
     27162       954  TIP3      H2             28.8109474209      -20.9528627114       36.0242082804  TIP3      754             0.0000000000
     27163       955  TIP3      OH2            30.2239610683      -19.8115431845       35.8162641387  TIP3      755             0.0000000000
     27164       955  TIP3      H1             31.0216480646      -20.1065447292       35.3635626818  TIP3      755             0.0000000000
     27165       955  TIP3      H2             30.5776914648      -19.4570366572       36.6599555131  TIP3      755             0.0000000000
     27166       956  TIP3      OH2            35.2856104481      -36.9508152686       35.0586653832  TIP3      756             0.0000000000
     27167       956  TIP3      H1             34.4841537329      -36.8116134083       34.5192256758  TIP3      756             0.0000000000
     27168       956  TIP3      H2             35.2839070842      -37.9254868652       35.1848105314  TIP3      756             0.0000000000
     27169       957  TIP3      OH2            21.1874087981      -19.4357757752       33.4018293818  TIP3      757             0.0000000000
     27170       957  TIP3      H1             20.3786198295      -18.9370047163       33.1508941794  TIP3      757             0.0000000000
     27171       957  TIP3      H2             21.1119683041      -19.4292199138       34.3664514510  TIP3      757             0.0000000000
     27172       958  TIP3      OH2            23.5926122567      -19.8923268171       32.4353264942  TIP3      758             0.0000000000
     27173       958  TIP3      H1             22.6781329319      -19.7759682987       32.7848151997  TIP3      758             0.0000000000
     27174       958  TIP3      H2             23.6202986793      -19.1996187562       31.7472041095  TIP3      758             0.0000000000
     27175       959  TIP3      OH2            28.3749634881      -20.2749161632       31.6931811401  TIP3      759             0.0000000000
     27176       959  TIP3      H1             27.6670152503      -19.9429710920       31.1269886734  TIP3      759             0.0000000000
     27177       959  TIP3      H2             28.5103851331      -19.5147338062       32.3026948214  TIP3      759             0.0000000000
     27178       960  TIP3      OH2            30.2658281437      -21.5639207278       33.1563480168  TIP3      760             0.0000000000
     27179       960  TIP3      H1             29.5854818526      -21.1545049412       32.5857925277  TIP3      760             0.0000000000
     27180       960  TIP3      H2             31.0495428560      -21.0598960004       32.8846765516  TIP3      760             0.0000000000
     27181       961  TIP3      OH2            32.9408812952      -20.1690174171       32.7878136741  TIP3      761             0.0000000000
     27182       961  TIP3      H1             33.0231534812      -19.2194546258       32.6525511594  TIP3      761             0.0000000000
     27183       961  TIP3      H2             33.3762271367      -20.5333268923       31.9810658483  TIP3      761             0.0000000000
     27184       962  TIP3      OH2            20.7076326670      -21.1014167622       30.3402664410  TIP3      762             0.0000000000
     27185       962  TIP3      H1             20.5638153091      -21.6875187880       31.1178899910  TIP3      762             0.0000000000
     27186       962  TIP3      H2             21.6353041015      -21.3686035227       30.1088800790  TIP3      762             0.0000000000
     27187       963  TIP3      OH2            22.9686610458      -22.0262277983       29.2811566026  TIP3      763             0.0000000000
     27188       963  TIP3      H1             22.8343260800      -22.9755310703       29.4795375661  TIP3      763             0.0000000000
     27189       963  TIP3      H2             23.8913825301      -21.9174352295       29.6051397994  TIP3      763             0.0000000000
     27190       964  TIP3      OH2            25.3213781161      -22.1504367180       30.5014818396  TIP3      764             0.0000000000
     27191       964  TIP3      H1             25.6466048666      -23.0591840287       30.3570528858  TIP3      764             0.0000000000
     27192       964  TIP3      H2             25.4190147774      -22.0635218794       31.4622832200  TIP3      764             0.0000000000
     27193       965  TIP3      OH2            33.6352816947      -36.9371618570       29.2245541546  TIP3      765             0.0000000000
     27194       965  TIP3      H1             34.3078903395      -36.9672325737       28.5067790672  TIP3      765             0.0000000000
     27195       965  TIP3      H2             32.8515865891      -36.5975671303       28.7554478866  TIP3      765             0.0000000000
     27196       966  TIP3      OH2            35.6836245706      -37.1483279346       27.1750499407  TIP3      766             0.0000000000
     27197       966  TIP3      H1             36.2846591961      -37.8888425011       26.9737903515  TIP3      766             0.0000000000
     27198       966  TIP3      H2             36.3399893220      -36.4276015192       27.3247057694  TIP3      766             0.0000000000
     27199       967  TIP3      OH2            20.8929781258      -36.9301389871       26.7937753743  TIP3      767             0.0000000000
     27200       967  TIP3      H1             20.2721456189      -36.7494081503       26.0505269050  TIP3      767             0.0000000000
     27201       967  TIP3      H2             20.9486298159      -37.9123272007       26.7828198468  TIP3      767             0.0000000000
     27202       968  TIP3      OH2            18.9395405138      -37.8564636593       22.3229805096  TIP3      768             0.0000000000
     27203       968  TIP3      H1             19.8801512882      -37.9120566313       22.0923367882  TIP3      768             0.0000000000
     27204       968  TIP3      H2             18.9643933302      -37.5284527649       23.2379674660  TIP3      768             0.0000000000
     27205       969  TIP3      OH2            26.0147594096      -37.0094735098       26.5667763414  TIP3      769             0.0000000000
     27206       969  TIP3      H1             26.7914471417      -36.5325815991       26.2545244170  TIP3      769             0.0000000000
     27207       969  TIP3      H2             26.1696507711      -37.0162369965       27.5467523045  TIP3      769             0.0000000000
     27208       970  TIP3      OH2            31.1726299192      -36.8026863293       27.8315054842  TIP3      770             0.0000000000
     27209       970  TIP3      H1             31.0235385494      -36.9039401226       26.8711195963  TIP3      770             0.0000000000
     27210       970  TIP3      H2             31.0641252228      -37.7245447200       28.1303175064  TIP3      770             0.0000000000
     27211       971  TIP3      OH2            32.5465726132      -36.4362825423       24.1497277278  TIP3      771             0.0000000000
     27212       971  TIP3      H1             31.6543517162      -36.1085900143       23.9299058571  TIP3      771             0.0000000000
     27213       971  TIP3      H2             32.3866395841      -37.4084151280       24.1549241606  TIP3      771             0.0000000000
     27214       972  TIP3      OH2            20.1467483866      -21.1427942547       24.0429157330  TIP3      772             0.0000000000
     27215       972  TIP3      H1             19.2913035676      -21.2448731162       23.5737089881  TIP3      772             0.0000000000
     27216       972  TIP3      H2             20.6172118825      -20.5716176116       23.4106644240  TIP3      772             0.0000000000
     27217       973  TIP3      OH2            21.7244441539      -36.4234046221       21.9570085657  TIP3      773             0.0000000000
     27218       973  TIP3      H1             21.7191983528      -37.3497668390       21.6130860350  TIP3      773             0.0000000000
     27219       973  TIP3      H2             22.6792877900      -36.2377111056       22.0415523572  TIP3      773             0.0000000000
     27220       974  TIP3      OH2            35.3209060778      -21.1847003279       24.3547763749  TIP3      774             0.0000000000
     27221       974  TIP3      H1             35.2398178116      -22.1682469001       24.2464373246  TIP3      774             0.0000000000
     27222       974  TIP3      H2             35.4568874707      -20.9899996641       23.3964443713  TIP3      774             0.0000000000
     27223       975  TIP3      OH2            20.5371821090      -37.3014823623       36.8667630904  TIP3      775             0.0000000000
     27224       975  TIP3      H1             20.7006559209      -38.2078144779       36.5453811832  TIP3      775             0.0000000000
     27225       975  TIP3      H2             21.4136894469      -37.0884317909       37.2520785601  TIP3      775             0.0000000000
     27226       976  TIP3      OH2            23.0072727859      -37.2070503762       37.9095515886  TIP3      776             0.0000000000
     27227       976  TIP3      H1             23.8784494608      -36.8626257569       37.6514824275  TIP3      776             0.0000000000
     27228       976  TIP3      H2             23.1336879121      -38.1395354463       37.5992088029  TIP3      776             0.0000000000
     27229       977  TIP3      OH2            31.3957797291      -37.9186462786       38.6116398839  TIP3      777             0.0000000000
     27230       977  TIP3      H1             31.0064223305      -38.8050217844       38.4949474668  TIP3      777             0.0000000000
     27231       977  TIP3      H2             32.1281497699      -37.9982036011       37.9855837919  TIP3      777             0.0000000000
     27232       978  TIP3      OH2            34.5294938632      -22.7821445582       36.6609073195  TIP3      778             0.0000000000
     27233       978  TIP3      H1             33.9259337763      -22.5684416247       35.9125648379  TIP3      778             0.0000000000
     27234       978  TIP3      H2             34.6488912218      -21.9117396381       37.0427650207  TIP3      778             0.0000000000
     27235       979  TIP3      OH2            37.3015148568      -31.6021190777       25.8079854569  TIP3      779             0.0000000000
     27236       979  TIP3      H1             36.9182054580      -30.7299612706       25.5733991201  TIP3      779             0.0000000000
     27237       979  TIP3      H2             37.1783754869      -32.0983945308       24.9736573323  TIP3      779             0.0000000000
     27238       980  TIP3      OH2            37.5065413152      -27.0841731986       33.4442681644  TIP3      780             0.0000000000
     27239       980  TIP3      H1             36.8689953678      -27.1511558045       32.7052796551  TIP3      780             0.0000000000
     27240       980  TIP3      H2             37.5218799338      -28.0050060019       33.7996760197  TIP3      780             0.0000000000
     27241       981  TIP3      OH2            37.1407008700      -24.1327581623       30.3764324111  TIP3      781             0.0000000000
     27242       981  TIP3      H1             38.1297019066      -24.1464025126       30.3218139819  TIP3      781             0.0000000000
     27243       981  TIP3      H2             37.0134323181      -23.2811705974       30.8267462848  TIP3      781             0.0000000000
     27244       982  TIP3      OH2            37.2905875406      -34.9703167241       27.6194449620  TIP3      782             0.0000000000
     27245       982  TIP3      H1             38.0153418919      -34.5119378846       28.0580354422  TIP3      782             0.0000000000
     27246       982  TIP3      H2             37.6847236326      -35.1373747497       26.7351973889  TIP3      782             0.0000000000
     27247       983  TIP3      OH2            37.4859274428      -29.5071268434       34.5376545963  TIP3      783             0.0000000000
     27248       983  TIP3      H1             37.3206701451      -30.1361017211       35.2833391053  TIP3      783             0.0000000000
     27249       983  TIP3      H2             36.7917942537      -29.7808323027       33.9001265419  TIP3      783             0.0000000000
     27250       984  TIP3      OH2            37.9422317372      -27.5866527750       37.7254298632  TIP3      784             0.0000000000
     27251       984  TIP3      H1             37.4330140064      -28.3251053011       38.0852409216  TIP3      784             0.0000000000
     27252       984  TIP3      H2             37.2990711186      -27.1461669400       37.1214002790  TIP3      784             0.0000000000
     27253       985  TIP3      OH2            36.9750089137      -19.9831206288       26.1789520664  TIP3      785             0.0000000000
     27254       985  TIP3      H1             36.5453677851      -20.5510032090       25.5073420156  TIP3      785             0.0000000000
     27255       985  TIP3      H2             37.1913244819      -20.6643087471       26.8547395926  TIP3      785             0.0000000000
     27256       986  TIP3      OH2            36.9706199307      -21.9594666694       28.0682223379  TIP3      786             0.0000000000
     27257       986  TIP3      H1             36.9078696970      -22.9285260701       28.1505804960  TIP3      786             0.0000000000
     27258       986  TIP3      H2             37.8004313632      -21.7934089854       28.5832507947  TIP3      786             0.0000000000
     27259       987  TIP3      OH2            37.9682135891      -29.1111787151       30.8431590649  TIP3      787             0.0000000000
     27260       987  TIP3      H1             37.6551580777      -28.7587135203       29.9943465376  TIP3      787             0.0000000000
     27261       987  TIP3      H2             38.7170309632      -28.4814937773       30.9835169220  TIP3      787             0.0000000000
     27262       988  TIP3      OH2            37.0027699454      -33.2401031656       37.5553027724  TIP3      788             0.0000000000
     27263       988  TIP3      H1             37.9433677514      -33.0502989038       37.7311466068  TIP3      788             0.0000000000
     27264       988  TIP3      H2             36.9579216471      -34.2193289335       37.4964867933  TIP3      788             0.0000000000
     27265       989  TIP3      OH2            36.7736640645      -32.0554130040       30.1620291443  TIP3      789             0.0000000000
     27266       989  TIP3      H1             37.6556028489      -32.3153317904       29.8557902839  TIP3      789             0.0000000000
     27267       989  TIP3      H2             37.0191798951      -31.5494646868       30.9462949441  TIP3      789             0.0000000000
     27268       990  TIP3      OH2            37.6136767458      -35.9079485564       24.9434005393  TIP3      790             0.0000000000
     27269       990  TIP3      H1             36.6726317395      -36.0680170602       24.7760218170  TIP3      790             0.0000000000
     27270       990  TIP3      H2             37.8516919557      -35.4662076195       24.1257011360  TIP3      790             0.0000000000
     27271       991  TIP3      OH2            36.8673944834      -36.7517866358       33.0398303639  TIP3      791             0.0000000000
     27272       991  TIP3      H1             36.2761947978      -36.6051350880       33.8123805932  TIP3      791             0.0000000000
     27273       991  TIP3      H2             36.5561480697      -36.0522207785       32.4236160539  TIP3      791             0.0000000000
     27274       992  TIP3      OH2           -26.4208762017       -9.5277355878       26.6880573959  TIP3      792             0.0000000000
     27275       992  TIP3      H1            -26.5256481174       -8.5630559591       26.7351250625  TIP3      792             0.0000000000
     27276       992  TIP3      H2            -27.0475269029       -9.7284886613       25.9641989451  TIP3      792             0.0000000000
     27277       993  TIP3      OH2           -27.4368638594      -10.4921488320       30.2714900593  TIP3      793             0.0000000000
     27278       993  TIP3      H1            -27.2501265118      -10.7617808211       31.1961049823  TIP3      793             0.0000000000
     27279       993  TIP3      H2            -28.0205645242      -11.2415531983       30.0179001206  TIP3      793             0.0000000000
     27280       994  TIP3      OH2           -34.9674621693      -10.6647200238       31.9613480388  TIP3      794             0.0000000000
     27281       994  TIP3      H1            -35.2762946564      -11.4600503722       32.4436160969  TIP3      794             0.0000000000
     27282       994  TIP3      H2            -34.2538362526      -10.3668264092       32.5547841440  TIP3      794             0.0000000000
     27283       995  TIP3      OH2           -24.0028309851       -7.8985685112       28.6171820002  TIP3      795             0.0000000000
     27284       995  TIP3      H1            -24.9079957940       -8.2313255488       28.7197991688  TIP3      795             0.0000000000
     27285       995  TIP3      H2            -24.1475626332       -7.0161349836       29.0079189846  TIP3      795             0.0000000000
     27286       996  TIP3      OH2           -34.6300110083       -5.9931187442       29.9998169435  TIP3      796             0.0000000000
     27287       996  TIP3      H1            -34.8706566382       -6.9370099374       29.8427346931  TIP3      796             0.0000000000
     27288       996  TIP3      H2            -33.6695410788       -6.1330055555       29.9913459226  TIP3      796             0.0000000000
     27289       997  TIP3      OH2           -36.9597125976      -12.0470661356       25.4439130353  TIP3      797             0.0000000000
     27290       997  TIP3      H1            -37.2723714197      -11.6590575697       26.2759582013  TIP3      797             0.0000000000
     27291       997  TIP3      H2            -37.7050778519      -12.6418947872       25.2236241553  TIP3      797             0.0000000000
     27292       998  TIP3      OH2           -37.1100480984      -10.3772236882       28.2267530119  TIP3      798             0.0000000000
     27293       998  TIP3      H1            -36.5471434011      -11.1589144474       28.4354566813  TIP3      798             0.0000000000
     27294       998  TIP3      H2            -36.4931296941       -9.8014580219       27.7630574135  TIP3      798             0.0000000000
     27295       999  TIP3      OH2           -26.4454043359       -1.9642790783       28.4057141314  TIP3      799             0.0000000000
     27296       999  TIP3      H1            -25.8692173689       -2.6366201300       27.9701188619  TIP3      799             0.0000000000
     27297       999  TIP3      H2            -26.8735448455       -2.5272719309       29.0597666259  TIP3      799             0.0000000000
     27298      1000  TIP3      OH2           -29.1723055458       -7.7270914371       30.8737705894  TIP3      800             0.0000000000
     27299      1000  TIP3      H1            -28.6839990891       -8.0222289017       30.0834074122  TIP3      800             0.0000000000
     27300      1000  TIP3      H2            -28.3936903282       -7.5768122578       31.4599304090  TIP3      800             0.0000000000
     27301      1001  TIP3      OH2           -20.5512792380      -16.4511270229       31.1987259664  TIP3      801             0.0000000000
     27302      1001  TIP3      H1            -20.5672186830      -15.8367919722       31.9685290810  TIP3      801             0.0000000000
     27303      1001  TIP3      H2            -19.7264268408      -16.1659365118       30.7626336965  TIP3      801             0.0000000000
     27304      1002  TIP3      OH2           -25.4264002475      -13.3915997808       31.1736361129  TIP3      802             0.0000000000
     27305      1002  TIP3      H1            -25.3774981418      -14.3572246017       31.3120015776  TIP3      802             0.0000000000
     27306      1002  TIP3      H2            -25.8704366353      -13.3823366432       30.3076734176  TIP3      802             0.0000000000
     27307      1003  TIP3      OH2           -32.7275206198      -15.5102505960       27.9142040112  TIP3      803             0.0000000000
     27308      1003  TIP3      H1            -32.4478962236      -14.6066993470       27.6377311157  TIP3      803             0.0000000000
     27309      1003  TIP3      H2            -32.8914254019      -15.8751186290       27.0265939101  TIP3      803             0.0000000000
     27310      1004  TIP3      OH2           -25.1806153757      -15.2359989915       26.8358929679  TIP3      804             0.0000000000
     27311      1004  TIP3      H1            -24.6474431661      -15.5609262638       27.6055766308  TIP3      804             0.0000000000
     27312      1004  TIP3      H2            -24.5819393984      -14.5527455084       26.5049678485  TIP3      804             0.0000000000
     27313      1005  TIP3      OH2           -35.7716274447      -12.7769431397       28.7162784168  TIP3      805             0.0000000000
     27314      1005  TIP3      H1            -35.2144899043      -13.3583044200       29.2794961491  TIP3      805             0.0000000000
     27315      1005  TIP3      H2            -35.6606230714      -13.2383259291       27.8572816641  TIP3      805             0.0000000000
     27316      1006  TIP3      OH2           -31.3175851237      -11.1313686033       28.4850598112  TIP3      806             0.0000000000
     27317      1006  TIP3      H1            -30.5110332278      -11.5917769887       28.7642282674  TIP3      806             0.0000000000
     27318      1006  TIP3      H2            -31.6214663203      -11.7590206542       27.7942822343  TIP3      806             0.0000000000
     27319      1007  TIP3      OH2           -20.4716951497      -14.9904910517       33.5073207044  TIP3      807             0.0000000000
     27320      1007  TIP3      H1            -20.8069124303      -14.1325955404       33.1436245836  TIP3      807             0.0000000000
     27321      1007  TIP3      H2            -20.1271365387      -14.6748826795       34.3532538670  TIP3      807             0.0000000000
     27322      1008  TIP3      OH2           -33.5873003061      -16.5540136660       32.0788262207  TIP3      808             0.0000000000
     27323      1008  TIP3      H1            -33.9603270891      -15.9268325398       31.4292715908  TIP3      808             0.0000000000
     27324      1008  TIP3      H2            -34.1085235287      -16.3094950472       32.8632480383  TIP3      808             0.0000000000
     27325      1009  TIP3      OH2           -26.4694235034       -6.8249649983       25.4931076377  TIP3      809             0.0000000000
     27326      1009  TIP3      H1            -26.7687273146       -6.7674498953       24.5591919912  TIP3      809             0.0000000000
     27327      1009  TIP3      H2            -26.9208045664       -6.0563374261       25.8779031098  TIP3      809             0.0000000000
     27328      1010  TIP3      OH2           -31.3628589029       -8.7878359175       32.3387955651  TIP3      810             0.0000000000
     27329      1010  TIP3      H1            -31.9964475083       -8.0970991510       32.6337728294  TIP3      810             0.0000000000
     27330      1010  TIP3      H2            -30.7516819618       -8.2719356381       31.7736322601  TIP3      810             0.0000000000
     27331      1011  TIP3      OH2           -23.2800233137      -15.6061359829       28.6709303183  TIP3      811             0.0000000000
     27332      1011  TIP3      H1            -23.1885952440      -16.4251621571       29.1716598828  TIP3      811             0.0000000000
     27333      1011  TIP3      H2            -22.4667731295      -15.1330237084       28.9118245706  TIP3      811             0.0000000000
     27334      1012  TIP3      OH2           -34.2709608295      -14.4604088051       30.1421046932  TIP3      812             0.0000000000
     27335      1012  TIP3      H1            -33.7127554251      -13.8672620847       30.7059033499  TIP3      812             0.0000000000
     27336      1012  TIP3      H2            -33.6190511546      -14.8415063085       29.5253938565  TIP3      812             0.0000000000
     27337      1013  TIP3      OH2           -32.8032316518       -6.5270692589       33.0159516344  TIP3      813             0.0000000000
     27338      1013  TIP3      H1            -32.7113808317       -5.7570032285       32.4411271688  TIP3      813             0.0000000000
     27339      1013  TIP3      H2            -33.7313946258       -6.4298386765       33.3221229211  TIP3      813             0.0000000000
     27340      1014  TIP3      OH2           -37.4584917536       -7.1602001341       24.2446478076  TIP3      814             0.0000000000
     27341      1014  TIP3      H1            -36.9097045301       -7.4376633308       23.5106042188  TIP3      814             0.0000000000
     27342      1014  TIP3      H2            -36.8283980053       -6.7082785741       24.8212637714  TIP3      814             0.0000000000
     27343      1015  TIP3      OH2           -22.9657659385       -5.4421611474       31.1686553117  TIP3      815             0.0000000000
     27344      1015  TIP3      H1            -23.8617488758       -5.6877528806       30.8687163028  TIP3      815             0.0000000000
     27345      1015  TIP3      H2            -22.8725415932       -4.6517722794       30.6097608585  TIP3      815             0.0000000000
     27346      1016  TIP3      OH2           -23.4001148329      -16.9486323803       31.9069891926  TIP3      816             0.0000000000
     27347      1016  TIP3      H1            -24.1378844357      -16.7436490206       31.2995805026  TIP3      816             0.0000000000
     27348      1016  TIP3      H2            -22.6284715147      -16.6671358677       31.3781368328  TIP3      816             0.0000000000
     27349      1017  TIP3      OH2           -30.6148394570      -19.2087937593       29.7127528395  TIP3      817             0.0000000000
     27350      1017  TIP3      H1            -30.8311222706      -20.1487952672       29.8483494798  TIP3      817             0.0000000000
     27351      1017  TIP3      H2            -31.1778198530      -18.7710155744       30.3596847924  TIP3      817             0.0000000000
     27352      1018  TIP3      OH2           -24.9594528551       -3.6904821926       26.9771731732  TIP3      818             0.0000000000
     27353      1018  TIP3      H1            -24.5806567797       -4.5832705767       26.8633141858  TIP3      818             0.0000000000
     27354      1018  TIP3      H2            -24.1605365085       -3.1173754534       26.9542717186  TIP3      818             0.0000000000
     27355      1019  TIP3      OH2           -23.6091374567       -5.9439544095       26.0719660609  TIP3      819             0.0000000000
     27356      1019  TIP3      H1            -24.4736476021       -6.3687392264       25.9186529923  TIP3      819             0.0000000000
     27357      1019  TIP3      H2            -23.3097613936       -6.4632202025       26.8397421071  TIP3      819             0.0000000000
     27358      1020  TIP3      OH2           -22.2170274948       -7.0841963344       34.5661445286  TIP3      820             0.0000000000
     27359      1020  TIP3      H1            -22.1148739130       -7.8275240138       33.9261147181  TIP3      820             0.0000000000
     27360      1020  TIP3      H2            -22.1843018297       -6.3324657803       33.9454543708  TIP3      820             0.0000000000
     27361      1021  TIP3      OH2           -27.7855816407      -10.1461458321       24.3768173167  TIP3      821             0.0000000000
     27362      1021  TIP3      H1            -28.3462715593       -9.6141430785       23.7755118978  TIP3      821             0.0000000000
     27363      1021  TIP3      H2            -27.0409868807      -10.3759535601       23.7813748207  TIP3      821             0.0000000000
     27364      1022  TIP3      OH2           -27.7188678559      -12.2784756818       21.5366230914  TIP3      822             0.0000000000
     27365      1022  TIP3      H1            -26.9397649901      -12.6766662852       21.9265465818  TIP3      822             0.0000000000
     27366      1022  TIP3      H2            -28.1564545782      -13.0305519687       21.1028500723  TIP3      822             0.0000000000
     27367      1023  TIP3      OH2           -20.1845380361      -10.6268105882       32.3716213403  TIP3      823             0.0000000000
     27368      1023  TIP3      H1            -20.8477255310       -9.9348175200       32.5636622561  TIP3      823             0.0000000000
     27369      1023  TIP3      H2            -19.7175870386      -10.2111660447       31.6171041518  TIP3      823             0.0000000000
     27370      1024  TIP3      OH2           -23.8559002499       -9.7760872187       25.3876235371  TIP3      824             0.0000000000
     27371      1024  TIP3      H1            -24.5994876938       -9.6139977854       26.0032569638  TIP3      824             0.0000000000
     27372      1024  TIP3      H2            -23.2790770546      -10.3193665994       25.9752502812  TIP3      824             0.0000000000
     27373      1025  TIP3      OH2           -24.1614307798      -11.7473870876       34.3011160529  TIP3      825             0.0000000000
     27374      1025  TIP3      H1            -24.4855628925      -10.8992769837       34.6332621876  TIP3      825             0.0000000000
     27375      1025  TIP3      H2            -24.7148580311      -11.8159537760       33.5061719883  TIP3      825             0.0000000000
     27376      1026  TIP3      OH2           -32.8099570839       -9.3051435777       27.2163059027  TIP3      826             0.0000000000
     27377      1026  TIP3      H1            -33.0438610127       -9.8324046029       26.4205152354  TIP3      826             0.0000000000
     27378      1026  TIP3      H2            -32.2742484312       -9.9478264966       27.7291958200  TIP3      826             0.0000000000
     27379      1027  TIP3      OH2           -31.2417082469       -6.3535455680       29.9406086659  TIP3      827             0.0000000000
     27380      1027  TIP3      H1            -30.9345613318       -6.2875020386       29.0201146851  TIP3      827             0.0000000000
     27381      1027  TIP3      H2            -30.4812175714       -6.8291381421       30.3488426610  TIP3      827             0.0000000000
     27382      1028  TIP3      OH2           -32.1555074247      -10.8549614404       30.9387454364  TIP3      828             0.0000000000
     27383      1028  TIP3      H1            -31.7596578080      -10.7502232740       30.0447606340  TIP3      828             0.0000000000
     27384      1028  TIP3      H2            -31.8711083076      -10.0501652948       31.4296062924  TIP3      828             0.0000000000
     27385      1029  TIP3      OH2           -27.2867599371       -4.9764312541       32.6882480738  TIP3      829             0.0000000000
     27386      1029  TIP3      H1            -26.9428067502       -4.0698464524       32.7032564121  TIP3      829             0.0000000000
     27387      1029  TIP3      H2            -26.8333643202       -5.3350153357       31.8904617892  TIP3      829             0.0000000000
     27388      1030  TIP3      OH2           -31.2764093066       -6.2481814875       35.2638281891  TIP3      830             0.0000000000
     27389      1030  TIP3      H1            -31.9990526408       -5.7717548480       35.7198730832  TIP3      830             0.0000000000
     27390      1030  TIP3      H2            -31.7015896790       -6.3941618353       34.3966865429  TIP3      830             0.0000000000
     27391      1031  TIP3      OH2           -25.3676789520      -10.5658204269       23.1847826321  TIP3      831             0.0000000000
     27392      1031  TIP3      H1            -24.8100997463      -10.3295992044       23.9682681087  TIP3      831             0.0000000000
     27393      1031  TIP3      H2            -24.9760829902      -10.1094715063       22.4413183743  TIP3      831             0.0000000000
     27394      1032  TIP3      OH2           -33.8812184463      -10.0195146776       34.4177956976  TIP3      832             0.0000000000
     27395      1032  TIP3      H1            -33.9592935643       -9.2972817835       35.0796613163  TIP3      832             0.0000000000
     27396      1032  TIP3      H2            -34.7775899095      -10.4069806045       34.4623724283  TIP3      832             0.0000000000
     27397      1033  TIP3      OH2           -28.1749922962       -4.0863475565       26.4889417777  TIP3      833             0.0000000000
     27398      1033  TIP3      H1            -27.4763168728       -3.9280340745       27.1278771701  TIP3      833             0.0000000000
     27399      1033  TIP3      H2            -28.0730586867       -3.3643692505       25.8671886971  TIP3      833             0.0000000000
     27400      1034  TIP3      OH2           -33.1526044558       -4.5230207567       36.3131754629  TIP3      834             0.0000000000
     27401      1034  TIP3      H1            -33.2653366744       -4.1839857045       35.4018034614  TIP3      834             0.0000000000
     27402      1034  TIP3      H2            -34.0815443452       -4.5554454257       36.6108796984  TIP3      834             0.0000000000
     27403      1035  TIP3      OH2           -21.3481242106      -19.3162304782       23.2034233253  TIP3      835             0.0000000000
     27404      1035  TIP3      H1            -22.3255283261      -19.2769118364       23.2907145434  TIP3      835             0.0000000000
     27405      1035  TIP3      H2            -21.1935030487      -18.6182208546       22.5393352066  TIP3      835             0.0000000000
     27406      1036  TIP3      OH2           -33.8429721880      -10.6390825855       25.0846314003  TIP3      836             0.0000000000
     27407      1036  TIP3      H1            -34.3541938406       -9.9219471534       24.6981141410  TIP3      836             0.0000000000
     27408      1036  TIP3      H2            -34.3404878554      -11.4431488798       24.8456020192  TIP3      836             0.0000000000
     27409      1037  TIP3      OH2           -36.7170760216       -8.1834054896       33.7643252903  TIP3      837             0.0000000000
     27410      1037  TIP3      H1            -37.6894057998       -8.1837566188       33.6427153964  TIP3      837             0.0000000000
     27411      1037  TIP3      H2            -36.4654017244       -9.0780360499       33.4850162725  TIP3      837             0.0000000000
     27412      1038  TIP3      OH2           -37.0216307416       -4.7401433586       30.0584967262  TIP3      838             0.0000000000
     27413      1038  TIP3      H1            -36.2089364134       -5.2880126489       30.1003082663  TIP3      838             0.0000000000
     27414      1038  TIP3      H2            -36.9533764486       -4.2866603123       30.9200876702  TIP3      838             0.0000000000
     27415      1039  TIP3      OH2           -19.6391683263       -4.5310531768       36.0815925032  TIP3      839             0.0000000000
     27416      1039  TIP3      H1            -19.8888332363       -5.4062226658       35.7505661614  TIP3      839             0.0000000000
     27417      1039  TIP3      H2            -20.5082493498       -4.3045264518       36.5045277637  TIP3      839             0.0000000000
     27418      1040  TIP3      OH2           -28.7940035029       -5.0572547316       35.3290937892  TIP3      840             0.0000000000
     27419      1040  TIP3      H1            -28.8429493661       -4.0836908804       35.2850311185  TIP3      840             0.0000000000
     27420      1040  TIP3      H2            -29.7281745174       -5.3520290704       35.2553838280  TIP3      840             0.0000000000
     27421      1041  TIP3      OH2           -28.1132891109       -1.1555987476       24.3883729796  TIP3      841             0.0000000000
     27422      1041  TIP3      H1            -28.0153483441       -1.0879360610       23.4095756731  TIP3      841             0.0000000000
     27423      1041  TIP3      H2            -28.0114959594       -0.2419859073       24.6961428806  TIP3      841             0.0000000000
     27424      1042  TIP3      OH2           -34.2439373407       -2.4947501866       26.6787741584  TIP3      842             0.0000000000
     27425      1042  TIP3      H1            -33.9090523373       -2.6954603447       27.5794779291  TIP3      842             0.0000000000
     27426      1042  TIP3      H2            -35.2018750605       -2.5499380039       26.8503421256  TIP3      842             0.0000000000
     27427      1043  TIP3      OH2           -25.4732438013       -2.1685272424       24.7671079565  TIP3      843             0.0000000000
     27428      1043  TIP3      H1            -26.4335465815       -2.0047555566       24.6814758895  TIP3      843             0.0000000000
     27429      1043  TIP3      H2            -25.4574651283       -2.7786467173       25.5366735440  TIP3      843             0.0000000000
     27430      1044  TIP3      OH2           -22.6380759528      -13.1775136983       36.4618805088  TIP3      844             0.0000000000
     27431      1044  TIP3      H1            -23.2118008191      -12.7753894347       35.7696747418  TIP3      844             0.0000000000
     27432      1044  TIP3      H2            -22.7330730131      -14.1194397625       36.2312656266  TIP3      844             0.0000000000
     27433      1045  TIP3      OH2           -35.2195540393       -6.2004050145       34.3530742373  TIP3      845             0.0000000000
     27434      1045  TIP3      H1            -35.0214376967       -6.6578351300       35.1865440765  TIP3      845             0.0000000000
     27435      1045  TIP3      H2            -35.8661307430       -6.8602116219       34.0001459792  TIP3      845             0.0000000000
     27436      1046  TIP3      OH2           -27.7190549182      -18.5977712586       33.5690646768  TIP3      846             0.0000000000
     27437      1046  TIP3      H1            -27.4080555062      -19.0183088560       34.4007405110  TIP3      846             0.0000000000
     27438      1046  TIP3      H2            -28.6979473156      -18.5775766489       33.6656834626  TIP3      846             0.0000000000
     27439      1047  TIP3      OH2           -24.9357783146      -14.4317902689       35.1074828910  TIP3      847             0.0000000000
     27440      1047  TIP3      H1            -25.5127305461      -14.9372844729       35.7248663759  TIP3      847             0.0000000000
     27441      1047  TIP3      H2            -25.3251743672      -13.5455531041       35.1520488297  TIP3      847             0.0000000000
     27442      1048  TIP3      OH2           -28.5477356804      -15.5468826543       21.9519101075  TIP3      848             0.0000000000
     27443      1048  TIP3      H1            -28.5809266571      -16.3870065925       22.4326809320  TIP3      848             0.0000000000
     27444      1048  TIP3      H2            -28.3765133543      -15.8717785718       21.0492041339  TIP3      848             0.0000000000
     27445      1049  TIP3      OH2           -32.4442812326      -13.3612343531       31.7314541765  TIP3      849             0.0000000000
     27446      1049  TIP3      H1            -33.2034061266      -13.1934520641       32.3284864027  TIP3      849             0.0000000000
     27447      1049  TIP3      H2            -32.2800505417      -12.4330456007       31.4395876579  TIP3      849             0.0000000000
     27448      1050  TIP3      OH2           -32.3371845325      -13.1206366816       26.9624450162  TIP3      850             0.0000000000
     27449      1050  TIP3      H1            -33.2984856758      -12.9445373113       26.8161003859  TIP3      850             0.0000000000
     27450      1050  TIP3      H2            -32.0379391899      -13.2364874255       26.0260766081  TIP3      850             0.0000000000
     27451      1051  TIP3      OH2           -27.3745475206      -12.9347926096       25.0956824100  TIP3      851             0.0000000000
     27452      1051  TIP3      H1            -27.5750608500      -12.0102150986       24.8495995759  TIP3      851             0.0000000000
     27453      1051  TIP3      H2            -26.6474664788      -13.1648916237       24.4714734865  TIP3      851             0.0000000000
     27454      1052  TIP3      OH2           -28.1348855885      -12.2398340001       36.7963159303  TIP3      852             0.0000000000
     27455      1052  TIP3      H1            -28.5876012678      -13.0636678134       37.0904832439  TIP3      852             0.0000000000
     27456      1052  TIP3      H2            -27.4179246483      -12.2017019680       37.4504008896  TIP3      852             0.0000000000
     27457      1053  TIP3      OH2           -26.1583217744      -13.0045195849       28.4085152891  TIP3      853             0.0000000000
     27458      1053  TIP3      H1            -26.1028995367      -12.1912538085       27.8770395794  TIP3      853             0.0000000000
     27459      1053  TIP3      H2            -26.1529474644      -13.6927489790       27.7186508117  TIP3      853             0.0000000000
     27460      1054  TIP3      OH2           -34.7686959845      -13.1142413996       33.1351494008  TIP3      854             0.0000000000
     27461      1054  TIP3      H1            -34.1263042714      -12.8207932346       33.8012047645  TIP3      854             0.0000000000
     27462      1054  TIP3      H2            -35.2351064149      -13.8470125839       33.5783763504  TIP3      854             0.0000000000
     27463      1055  TIP3      OH2           -31.4500715873      -16.7285249459       20.6357695864  TIP3      855             0.0000000000
     27464      1055  TIP3      H1            -32.0214405051      -17.1002580957       21.3192578451  TIP3      855             0.0000000000
     27465      1055  TIP3      H2            -31.6402406307      -15.7922812571       20.6836635740  TIP3      855             0.0000000000
     27466      1056  TIP3      OH2           -36.9890364241      -15.2175792107       27.3515300799  TIP3      856             0.0000000000
     27467      1056  TIP3      H1            -37.4182103992      -15.4864927933       28.1700397109  TIP3      856             0.0000000000
     27468      1056  TIP3      H2            -37.6681924638      -15.3935196653       26.6875038939  TIP3      856             0.0000000000
     27469      1057  TIP3      OH2           -26.9537331949      -11.6779005164       32.6238915093  TIP3      857             0.0000000000
     27470      1057  TIP3      H1            -26.3377202000      -12.3033805684       32.1877373844  TIP3      857             0.0000000000
     27471      1057  TIP3      H2            -27.4243950666      -12.2719754732       33.2567441590  TIP3      857             0.0000000000
     27472      1058  TIP3      OH2           -29.8938964196      -15.4230818959       27.7773896300  TIP3      858             0.0000000000
     27473      1058  TIP3      H1            -30.8286586748      -15.4617110226       28.0363721844  TIP3      858             0.0000000000
     27474      1058  TIP3      H2            -29.5249094754      -16.1833372639       28.2529607385  TIP3      858             0.0000000000
     27475      1059  TIP3      OH2           -34.8773282378      -13.5693549013       26.2551268098  TIP3      859             0.0000000000
     27476      1059  TIP3      H1            -35.5893217201      -13.2473984547       25.6725432809  TIP3      859             0.0000000000
     27477      1059  TIP3      H2            -34.9436523215      -14.5217506969       26.0939093973  TIP3      859             0.0000000000
     27478      1060  TIP3      OH2           -31.5400184124      -13.5000771801       24.4510060547  TIP3      860             0.0000000000
     27479      1060  TIP3      H1            -30.6907454574      -13.9750782457       24.4181432656  TIP3      860             0.0000000000
     27480      1060  TIP3      H2            -31.8793566413      -13.5910906120       23.5529813278  TIP3      860             0.0000000000
     27481      1061  TIP3      OH2           -25.6161633744      -16.1878879586       30.6617930902  TIP3      861             0.0000000000
     27482      1061  TIP3      H1            -26.3017088181      -16.4082837813       31.3223530218  TIP3      861             0.0000000000
     27483      1061  TIP3      H2            -25.7357712695      -16.8595838125       29.9785082323  TIP3      861             0.0000000000
     27484      1062  TIP3      OH2           -22.5504309779       -0.3191768050       37.4444034055  TIP3      862             0.0000000000
     27485      1062  TIP3      H1            -22.2162708946        0.0623911204       36.6185809785  TIP3      862             0.0000000000
     27486      1062  TIP3      H2            -21.7463439711       -0.2726436890       37.9939677850  TIP3      862             0.0000000000
     27487      1063  TIP3      OH2           -34.1632230262       -8.0396940269       36.2900413629  TIP3      863             0.0000000000
     27488      1063  TIP3      H1            -33.5079098847       -7.9853458514       37.0153774932  TIP3      863             0.0000000000
     27489      1063  TIP3      H2            -34.9830106988       -8.1792092084       36.7924050094  TIP3      863             0.0000000000
     27490      1064  TIP3      OH2           -28.7044688308      -12.7957791295       29.6825330004  TIP3      864             0.0000000000
     27491      1064  TIP3      H1            -28.0351634262      -12.9584860898       29.0052019535  TIP3      864             0.0000000000
     27492      1064  TIP3      H2            -28.8910581924      -13.6936960166       29.9859542587  TIP3      864             0.0000000000
     27493      1065  TIP3      OH2           -29.9273858983      -14.5941191560       32.2142578817  TIP3      865             0.0000000000
     27494      1065  TIP3      H1            -30.6547344152      -13.9875026586       31.9807586572  TIP3      865             0.0000000000
     27495      1065  TIP3      H2            -29.2466025346      -13.9833640914       32.5406508583  TIP3      865             0.0000000000
     27496      1066  TIP3      OH2           -29.9016181179       -8.2997479939       23.4359997139  TIP3      866             0.0000000000
     27497      1066  TIP3      H1            -30.5996179382       -8.9160959304       23.2097825901  TIP3      866             0.0000000000
     27498      1066  TIP3      H2            -30.1832689123       -8.0229368006       24.3287048450  TIP3      866             0.0000000000
     27499      1067  TIP3      OH2           -22.1107929669       -8.6831754019       32.5158096072  TIP3      867             0.0000000000
     27500      1067  TIP3      H1            -21.5909635642       -8.2243471598       31.8079884619  TIP3      867             0.0000000000
     27501      1067  TIP3      H2            -22.9792332052       -8.7784974156       32.0809640364  TIP3      867             0.0000000000
     27502      1068  TIP3      OH2           -28.2889892538       -7.7510261945       35.0624934551  TIP3      868             0.0000000000
     27503      1068  TIP3      H1            -28.7532273837       -7.9093169629       35.8970397888  TIP3      868             0.0000000000
     27504      1068  TIP3      H2            -28.2764350962       -6.7699229485       35.0510170433  TIP3      868             0.0000000000
     27505      1069  TIP3      OH2           -25.2438429183      -13.4069345023       23.4452848201  TIP3      869             0.0000000000
     27506      1069  TIP3      H1            -24.4833773819      -13.5145425934       24.0536848416  TIP3      869             0.0000000000
     27507      1069  TIP3      H2            -24.9588185699      -12.6581362213       22.9076190585  TIP3      869             0.0000000000
     27508      1070  TIP3      OH2           -34.3196363095       -8.5329595968       29.3116972797  TIP3      870             0.0000000000
     27509      1070  TIP3      H1            -33.9011264437       -8.6540200606       28.4284163047  TIP3      870             0.0000000000
     27510      1070  TIP3      H2            -33.9080941225       -9.2544407224       29.8220588546  TIP3      870             0.0000000000
     27511      1071  TIP3      OH2           -27.4404158852       -6.9342677937       22.9857620158  TIP3      871             0.0000000000
     27512      1071  TIP3      H1            -27.8164215673       -6.0189060846       22.9092980561  TIP3      871             0.0000000000
     27513      1071  TIP3      H2            -28.2663166000       -7.4613446326       22.9103576434  TIP3      871             0.0000000000
     27514      1072  TIP3      OH2           -36.5759912307      -10.9198659761       34.3844996645  TIP3      872             0.0000000000
     27515      1072  TIP3      H1            -36.6098993657      -11.0753941317       35.3381926235  TIP3      872             0.0000000000
     27516      1072  TIP3      H2            -37.5402781080      -10.8448106630       34.2087778301  TIP3      872             0.0000000000
     27517      1073  TIP3      OH2           -30.3946364129      -10.6609642029       36.6753425237  TIP3      873             0.0000000000
     27518      1073  TIP3      H1            -30.8480107917      -11.1807538439       35.9913565228  TIP3      873             0.0000000000
     27519      1073  TIP3      H2            -29.5307128577      -11.1339512364       36.7144380341  TIP3      873             0.0000000000
     27520      1074  TIP3      OH2           -25.4843158958       -5.5124098663       35.0590710138  TIP3      874             0.0000000000
     27521      1074  TIP3      H1            -26.1262679705       -5.4369450851       34.3239674323  TIP3      874             0.0000000000
     27522      1074  TIP3      H2            -25.9465405389       -5.0024015508       35.7556353215  TIP3      874             0.0000000000
     27523      1075  TIP3      OH2           -20.2869039026      -13.4453990369       23.3232679185  TIP3      875             0.0000000000
     27524      1075  TIP3      H1            -20.9093169597      -13.6003604169       22.5908840581  TIP3      875             0.0000000000
     27525      1075  TIP3      H2            -20.1313928098      -12.4781706947       23.1993653837  TIP3      875             0.0000000000
     27526      1076  TIP3      OH2           -19.8417316104       -7.4029257072       35.9577397656  TIP3      876             0.0000000000
     27527      1076  TIP3      H1            -20.7955592221       -7.2841817374       35.7403400051  TIP3      876             0.0000000000
     27528      1076  TIP3      H2            -19.4620182225       -7.5402500731       35.0588042750  TIP3      876             0.0000000000
     27529      1077  TIP3      OH2           -21.8997192311       -4.6513129557       23.6395823495  TIP3      877             0.0000000000
     27530      1077  TIP3      H1            -22.1981039070       -5.0837472272       24.4627672408  TIP3      877             0.0000000000
     27531      1077  TIP3      H2            -21.1014998136       -4.1860032939       23.9231000086  TIP3      877             0.0000000000
     27532      1078  TIP3      OH2           -24.3355651870       -9.9944682210       31.1050392326  TIP3      878             0.0000000000
     27533      1078  TIP3      H1            -25.2519322102       -9.9154634444       30.8287320272  TIP3      878             0.0000000000
     27534      1078  TIP3      H2            -23.9160652625      -10.3641448457       30.3073791141  TIP3      878             0.0000000000
     27535      1079  TIP3      OH2           -31.8309898655       -5.4044983418       27.1186038707  TIP3      879             0.0000000000
     27536      1079  TIP3      H1            -31.5186391116       -4.4974452930       26.9618290663  TIP3      879             0.0000000000
     27537      1079  TIP3      H2            -32.7167319860       -5.3782811010       26.7318944291  TIP3      879             0.0000000000
     27538      1080  TIP3      OH2           -30.8129088674       -7.7923590453       26.1346062379  TIP3      880             0.0000000000
     27539      1080  TIP3      H1            -31.1739857586       -6.9134579603       26.3615892710  TIP3      880             0.0000000000
     27540      1080  TIP3      H2            -31.3222556078       -8.4015120986       26.6960895802  TIP3      880             0.0000000000
     27541      1081  TIP3      OH2           -29.9206670224       -3.7173605175       32.9830372762  TIP3      881             0.0000000000
     27542      1081  TIP3      H1            -29.3951372278       -2.9283638208       32.7456729146  TIP3      881             0.0000000000
     27543      1081  TIP3      H2            -29.1927447586       -4.3731033434       33.1038922433  TIP3      881             0.0000000000
     27544      1082  TIP3      OH2           -31.7537177455       -2.8942963859       25.7342846053  TIP3      882             0.0000000000
     27545      1082  TIP3      H1            -32.7005554757       -2.7527422390       25.9622613007  TIP3      882             0.0000000000
     27546      1082  TIP3      H2            -31.3559716386       -2.2049550930       26.3048165348  TIP3      882             0.0000000000
     27547      1083  TIP3      OH2           -26.9958206713       -7.7311126447       32.4305766711  TIP3      883             0.0000000000
     27548      1083  TIP3      H1            -27.2429053161       -7.7802303273       33.3752702143  TIP3      883             0.0000000000
     27549      1083  TIP3      H2            -26.2750616482       -8.3493818345       32.3489481518  TIP3      883             0.0000000000
     27550      1084  TIP3      OH2           -23.6940075138       -3.1881014055       34.6799739459  TIP3      884             0.0000000000
     27551      1084  TIP3      H1            -24.5753411239       -3.5989023414       34.5412359155  TIP3      884             0.0000000000
     27552      1084  TIP3      H2            -23.6619480360       -2.5298215372       33.9543497880  TIP3      884             0.0000000000
     27553      1085  TIP3      OH2           -19.9520278468       -2.4161065638       21.9884270719  TIP3      885             0.0000000000
     27554      1085  TIP3      H1            -19.4486934476       -1.8668870180       21.3753221816  TIP3      885             0.0000000000
     27555      1085  TIP3      H2            -20.5495035553       -1.7152111791       22.3398725953  TIP3      885             0.0000000000
     27556      1086  TIP3      OH2           -35.6324308664      -15.5245469870       34.1556687009  TIP3      886             0.0000000000
     27557      1086  TIP3      H1            -35.9594352925      -15.1586282903       34.9994052434  TIP3      886             0.0000000000
     27558      1086  TIP3      H2            -35.7199215871      -16.4687635360       34.3207286643  TIP3      886             0.0000000000
     27559      1087  TIP3      OH2           -35.8269948443       -3.6280314818       32.3971208162  TIP3      887             0.0000000000
     27560      1087  TIP3      H1            -35.2825189912       -4.3951051215       32.6323756544  TIP3      887             0.0000000000
     27561      1087  TIP3      H2            -36.0662614944       -3.3126682714       33.2791814814  TIP3      887             0.0000000000
     27562      1088  TIP3      OH2           -29.9174746091       -6.0161050338       20.4716244035  TIP3      888             0.0000000000
     27563      1088  TIP3      H1            -29.7416183690       -5.4277387313       19.7210093934  TIP3      888             0.0000000000
     27564      1088  TIP3      H2            -30.8721213106       -6.1452958168       20.3872334177  TIP3      888             0.0000000000
     27565      1089  TIP3      OH2           -31.5718165254       -5.7037758258       22.5384364046  TIP3      889             0.0000000000
     27566      1089  TIP3      H1            -30.7162844420       -5.9973635646       22.1353414953  TIP3      889             0.0000000000
     27567      1089  TIP3      H2            -31.3241891623       -4.8054073768       22.8221677849  TIP3      889             0.0000000000
     27568      1090  TIP3      OH2           -26.9662145477      -15.9540282402       33.3462930424  TIP3      890             0.0000000000
     27569      1090  TIP3      H1            -26.0280417387      -15.8829406138       33.5694272815  TIP3      890             0.0000000000
     27570      1090  TIP3      H2            -27.1966808463      -16.8617605571       33.6164287956  TIP3      890             0.0000000000
     27571      1091  TIP3      OH2           -25.6542427604      -16.5948866230       24.5453840176  TIP3      891             0.0000000000
     27572      1091  TIP3      H1            -25.8595193663      -16.0035624437       23.8022837312  TIP3      891             0.0000000000
     27573      1091  TIP3      H2            -25.5288689047      -15.9883224886       25.3180508293  TIP3      891             0.0000000000
     27574      1092  TIP3      OH2           -28.3832425685       -4.3831615583       22.9516077667  TIP3      892             0.0000000000
     27575      1092  TIP3      H1            -29.2783374710       -4.0396418563       23.0891144185  TIP3      892             0.0000000000
     27576      1092  TIP3      H2            -28.0485008086       -3.7232465374       22.3130193626  TIP3      892             0.0000000000
     27577      1093  TIP3      OH2           -29.1953369840      -14.9692641836       25.0321266957  TIP3      893             0.0000000000
     27578      1093  TIP3      H1            -28.6193893065      -14.1693934406       25.0270029147  TIP3      893             0.0000000000
     27579      1093  TIP3      H2            -29.6018299317      -14.9629662158       25.9209506553  TIP3      893             0.0000000000
     27580      1094  TIP3      OH2           -27.9688931345      -13.5148627062       34.2830008913  TIP3      894             0.0000000000
     27581      1094  TIP3      H1            -27.8540220032      -13.1822781244       35.1899229075  TIP3      894             0.0000000000
     27582      1094  TIP3      H2            -27.7496700952      -14.4706684037       34.3589800962  TIP3      894             0.0000000000
     27583      1095  TIP3      OH2           -27.8535005901      -17.3569152343       26.2639434437  TIP3      895             0.0000000000
     27584      1095  TIP3      H1            -28.1974356766      -16.4430301487       26.2711219660  TIP3      895             0.0000000000
     27585      1095  TIP3      H2            -27.3070635888      -17.2804111564       25.4627751895  TIP3      895             0.0000000000
     27586      1096  TIP3      OH2           -30.8449735639       -2.9313315386       23.1413963536  TIP3      896             0.0000000000
     27587      1096  TIP3      H1            -30.1599836279       -2.2515924198       23.2187413304  TIP3      896             0.0000000000
     27588      1096  TIP3      H2            -31.2388396460       -2.9300842021       24.0420467984  TIP3      896             0.0000000000
     27589      1097  TIP3      OH2           -22.5181359188      -15.7364345690       35.3083314972  TIP3      897             0.0000000000
     27590      1097  TIP3      H1            -23.4497769225      -15.4863998684       35.1303300437  TIP3      897             0.0000000000
     27591      1097  TIP3      H2            -22.0873267005      -15.5767520268       34.4468170473  TIP3      897             0.0000000000
     27592      1098  TIP3      OH2           -23.5318847084      -12.0713978785       28.9753452313  TIP3      898             0.0000000000
     27593      1098  TIP3      H1            -24.3219024739      -12.6183420773       29.1143816011  TIP3      898             0.0000000000
     27594      1098  TIP3      H2            -22.8874596339      -12.4890611111       29.5886588017  TIP3      898             0.0000000000
     27595      1099  TIP3      OH2           -34.4465507280       -5.9569281287       21.4091051118  TIP3      899             0.0000000000
     27596      1099  TIP3      H1            -33.7815603011       -5.9345085633       22.1192627414  TIP3      899             0.0000000000
     27597      1099  TIP3      H2            -33.9323209272       -6.5552835239       20.8259997047  TIP3      899             0.0000000000
     27598      1100  TIP3      OH2           -22.5085888690       -2.4763101861       30.8226839552  TIP3      900             0.0000000000
     27599      1100  TIP3      H1            -22.5158802520       -1.8138495175       30.0975073546  TIP3      900             0.0000000000
     27600      1100  TIP3      H2            -21.5432338575       -2.5709844176       30.9165420451  TIP3      900             0.0000000000
     27601      1101  TIP3      OH2           -36.0985550895       -4.5561450841       25.5441583371  TIP3      901             0.0000000000
     27602      1101  TIP3      H1            -37.0168052958       -4.2604528262       25.5238245021  TIP3      901             0.0000000000
     27603      1101  TIP3      H2            -35.7373966391       -4.0363335048       24.8107285033  TIP3      901             0.0000000000
     27604      1102  TIP3      OH2           -36.7701078921       -1.8487523997       36.9506237882  TIP3      902             0.0000000000
     27605      1102  TIP3      H1            -36.1882339740       -1.7795949920       37.7345033445  TIP3      902             0.0000000000
     27606      1102  TIP3      H2            -37.0566713068       -2.7657982829       37.0765263048  TIP3      902             0.0000000000
     27607      1103  TIP3      OH2           -32.0983441369       -2.7708791427       38.4858326140  TIP3      903             0.0000000000
     27608      1103  TIP3      H1            -31.3282074099       -3.2809867586       38.7945995214  TIP3      903             0.0000000000
     27609      1103  TIP3      H2            -32.2972608496       -3.2019170402       37.6468061501  TIP3      903             0.0000000000
     27610      1104  TIP3      OH2           -26.0039915308       -4.3573911011       37.5052114769  TIP3      904             0.0000000000
     27611      1104  TIP3      H1            -26.3553541332       -5.2628980105       37.6935677467  TIP3      904             0.0000000000
     27612      1104  TIP3      H2            -25.1139286126       -4.4109307782       37.8948268205  TIP3      904             0.0000000000
     27613      1105  TIP3      OH2           -36.3677204154       -7.7859334580       38.1664475855  TIP3      905             0.0000000000
     27614      1105  TIP3      H1            -36.1874113893       -8.7287433144       38.3028011522  TIP3      905             0.0000000000
     27615      1105  TIP3      H2            -37.3173602426       -7.8855977209       37.9357325805  TIP3      905             0.0000000000
     27616      1106  TIP3      OH2           -32.7504165126       -7.8924460660       20.4376734866  TIP3      906             0.0000000000
     27617      1106  TIP3      H1            -32.0780090080       -8.4303462730       20.9035817308  TIP3      906             0.0000000000
     27618      1106  TIP3      H2            -32.5166302233       -8.1308259899       19.5280829760  TIP3      906             0.0000000000
     27619      1107  TIP3      OH2           -30.5150092724       -7.9689154682       37.1799885490  TIP3      907             0.0000000000
     27620      1107  TIP3      H1            -30.6762451088       -7.4842391869       36.3317210846  TIP3      907             0.0000000000
     27621      1107  TIP3      H2            -30.3974868727       -8.9110805634       36.9096012182  TIP3      907             0.0000000000
     27622      1108  TIP3      OH2           -24.8552859375       -8.2667811306       35.0217459065  TIP3      908             0.0000000000
     27623      1108  TIP3      H1            -23.9923193996       -7.8044658984       35.0743134324  TIP3      908             0.0000000000
     27624      1108  TIP3      H2            -25.4309766438       -7.4888343771       34.8886268607  TIP3      908             0.0000000000
     27625      1109  TIP3      OH2           -36.1804200228      -11.0531965507       37.8212078802  TIP3      909             0.0000000000
     27626      1109  TIP3      H1            -35.4727399983      -11.7232338799       37.7233516880  TIP3      909             0.0000000000
     27627      1109  TIP3      H2            -36.1524764459      -10.8396634260       38.7755568765  TIP3      909             0.0000000000
     27628      1110  TIP3      OH2           -32.2416241086      -12.1058233616       34.4688283113  TIP3      910             0.0000000000
     27629      1110  TIP3      H1            -32.7603628181      -11.2773828951       34.5703282582  TIP3      910             0.0000000000
     27630      1110  TIP3      H2            -31.4491316983      -11.7477124760       33.9939348583  TIP3      910             0.0000000000
     27631      1111  TIP3      OH2           -26.8373472787       -9.1840688252       38.0360559678  TIP3      911             0.0000000000
     27632      1111  TIP3      H1            -26.2903666661       -9.6623164915       37.3910209568  TIP3      911             0.0000000000
     27633      1111  TIP3      H2            -27.1492053490       -9.9222984289       38.5810385346  TIP3      911             0.0000000000
     27634      1112  TIP3      OH2           -31.8150991849      -14.4922703208       35.6120176326  TIP3      912             0.0000000000
     27635      1112  TIP3      H1            -31.6699790698      -15.0976135248       34.8570631931  TIP3      912             0.0000000000
     27636      1112  TIP3      H2            -31.7836399034      -13.6186949209       35.1628403788  TIP3      912             0.0000000000
     27637      1113  TIP3      OH2           -31.3104394515      -16.4256066279       33.5332041723  TIP3      913             0.0000000000
     27638      1113  TIP3      H1            -30.6956995629      -15.8724028315       32.9953778513  TIP3      913             0.0000000000
     27639      1113  TIP3      H2            -32.1072614634      -16.3596528271       32.9728260740  TIP3      913             0.0000000000
     27640      1114  TIP3      OH2           -30.0472220195      -10.8095987699       33.5267842100  TIP3      914             0.0000000000
     27641      1114  TIP3      H1            -29.1485901795      -10.7183806936       33.1905497558  TIP3      914             0.0000000000
     27642      1114  TIP3      H2            -30.4830238832      -10.0089307107       33.1513193559  TIP3      914             0.0000000000
     27643      1115  TIP3      OH2           -25.5720091389      -13.2369946376       38.4300479314  TIP3      915             0.0000000000
     27644      1115  TIP3      H1            -25.2755052408      -14.1534922766       38.3409100650  TIP3      915             0.0000000000
     27645      1115  TIP3      H2            -24.7615822271      -12.7526392273       38.6512190804  TIP3      915             0.0000000000
     27646      1116  TIP3      OH2           -23.9904526228       -9.9779771406       36.9607233800  TIP3      916             0.0000000000
     27647      1116  TIP3      H1            -24.3884479628       -9.4558892024       36.2467908585  TIP3      916             0.0000000000
     27648      1116  TIP3      H2            -23.0595485041       -9.9779023595       36.6731797678  TIP3      916             0.0000000000
     27649      1117  TIP3      OH2           -33.8141923548      -13.2606247097       37.5713583708  TIP3      917             0.0000000000
     27650      1117  TIP3      H1            -34.3872150413      -14.0384321722       37.7544690020  TIP3      917             0.0000000000
     27651      1117  TIP3      H2            -33.1923044449      -13.6501808724       36.9272328886  TIP3      917             0.0000000000
     27652      1118  TIP3      OH2           -30.4499446205      -18.9063330275       33.5977235120  TIP3      918             0.0000000000
     27653      1118  TIP3      H1            -30.7585430599      -17.9758355264       33.6694010516  TIP3      918             0.0000000000
     27654      1118  TIP3      H2            -31.2539208808      -19.3452582572       33.2918925788  TIP3      918             0.0000000000
     27655      1119  TIP3      OH2           -29.4413541076      -14.4795446634       37.5106198026  TIP3      919             0.0000000000
     27656      1119  TIP3      H1            -29.8335135278      -14.8454400703       38.3188956827  TIP3      919             0.0000000000
     27657      1119  TIP3      H2            -30.1335956556      -14.6830122764       36.8509518299  TIP3      919             0.0000000000
     27658      1120  TIP3      OH2           -26.7201730249      -15.4223455058       36.7351478061  TIP3      920             0.0000000000
     27659      1120  TIP3      H1            -27.6256096003      -15.2919217205       37.0492591723  TIP3      920             0.0000000000
     27660      1120  TIP3      H2            -26.3682727474      -15.9903834217       37.4603497927  TIP3      920             0.0000000000
     27661      1121  TIP3      OH2           -25.1957086298      -16.7776224072       38.4870542144  TIP3      921             0.0000000000
     27662      1121  TIP3      H1            -25.1610693063      -17.7571620530       38.4352724538  TIP3      921             0.0000000000
     27663      1121  TIP3      H2            -25.2375285365      -16.6253806669       39.4437529147  TIP3      921             0.0000000000
     27664      1122  TIP3      OH2           -35.3222013466      -15.4831819046       37.8213809859  TIP3      922             0.0000000000
     27665      1122  TIP3      H1            -34.9647687320      -16.2475940821       37.3373221595  TIP3      922             0.0000000000
     27666      1122  TIP3      H2            -35.6348067599      -15.9035518901       38.6602247523  TIP3      922             0.0000000000
     27667      1123  TIP3      OH2           -30.5215236188      -19.1384374784       36.4544408409  TIP3      923             0.0000000000
     27668      1123  TIP3      H1            -29.7411655723      -19.7099270700       36.5405209999  TIP3      923             0.0000000000
     27669      1123  TIP3      H2            -30.5565343477      -19.0799250170       35.4823592509  TIP3      923             0.0000000000
     27670      1124  TIP3      OH2           -30.4316862761      -17.9701083666       38.9624681311  TIP3      924             0.0000000000
     27671      1124  TIP3      H1            -30.5910796182      -18.3662188764       38.0749801765  TIP3      924             0.0000000000
     27672      1124  TIP3      H2            -30.8714403979      -17.0921369929       38.9068642981  TIP3      924             0.0000000000
     27673      1125  TIP3      OH2           -37.1872944177       -6.7059964947       20.7696208291  TIP3      925             0.0000000000
     27674      1125  TIP3      H1            -36.9388466055       -5.8186668106       21.0906719366  TIP3      925             0.0000000000
     27675      1125  TIP3      H2            -36.2995006333       -7.0761949841       20.6727338180  TIP3      925             0.0000000000
     27676      1126  TIP3      OH2           -37.5571799910       -1.2686460512       25.4727142925  TIP3      926             0.0000000000
     27677      1126  TIP3      H1            -38.3943268546       -1.0502026730       25.9378379425  TIP3      926             0.0000000000
     27678      1126  TIP3      H2            -36.9400803943       -1.1041472131       26.1997527237  TIP3      926             0.0000000000
     27679      1127  TIP3      OH2           -36.5804556607       -2.6070533665       28.0325562156  TIP3      927             0.0000000000
     27680      1127  TIP3      H1            -36.6396790281       -3.5742917111       27.9937034531  TIP3      927             0.0000000000
     27681      1127  TIP3      H2            -36.2704118738       -2.4310998120       28.9398968855  TIP3      927             0.0000000000
     27682      1128  TIP3      OH2           -19.6388783752       -2.0997506620       30.8095810053  TIP3      928             0.0000000000
     27683      1128  TIP3      H1            -19.4675947343       -2.3173340783       31.7345875318  TIP3      928             0.0000000000
     27684      1128  TIP3      H2            -19.2575650995       -1.2099522978       30.7628146016  TIP3      928             0.0000000000
     27685      1129  TIP3      OH2           -20.0893910177       -2.6605399653       34.0548883605  TIP3      929             0.0000000000
     27686      1129  TIP3      H1            -20.5416024016       -3.4356846116       33.6391714226  TIP3      929             0.0000000000
     27687      1129  TIP3      H2            -19.8126129457       -3.0643485789       34.9058176093  TIP3      929             0.0000000000
     27688      1130  TIP3      OH2           -21.7281696255       -6.8984058195       38.7973982653  TIP3      930             0.0000000000
     27689      1130  TIP3      H1            -22.6400256077       -6.8073191390       39.1382201211  TIP3      930             0.0000000000
     27690      1130  TIP3      H2            -21.3391031775       -6.0229750659       39.0240327451  TIP3      930             0.0000000000
     27691      1131  TIP3      OH2           -20.5030905623       -8.3545434104       23.6938232395  TIP3      931             0.0000000000
     27692      1131  TIP3      H1            -19.6008879383       -7.9773801252       23.8267431699  TIP3      931             0.0000000000
     27693      1131  TIP3      H2            -20.6103126336       -8.8541587996       24.5328122226  TIP3      931             0.0000000000
     27694      1132  TIP3      OH2           -20.3589030069      -10.1960043095       25.9247530495  TIP3      932             0.0000000000
     27695      1132  TIP3      H1            -21.1056025059      -10.7587906801       26.2494717823  TIP3      932             0.0000000000
     27696      1132  TIP3      H2            -19.8315693872      -10.1080736527       26.7367775814  TIP3      932             0.0000000000
     27697      1133  TIP3      OH2           -20.3804719447       -7.6791401669       30.8059914730  TIP3      933             0.0000000000
     27698      1133  TIP3      H1            -19.6918140055       -8.3210404522       30.5249794088  TIP3      933             0.0000000000
     27699      1133  TIP3      H2            -20.0324258243       -6.8315479454       30.4807711054  TIP3      933             0.0000000000
     27700      1134  TIP3      OH2           -21.6967999839       -4.6763112033       33.3007628155  TIP3      934             0.0000000000
     27701      1134  TIP3      H1            -22.4316422556       -4.2816157455       33.8047885294  TIP3      934             0.0000000000
     27702      1134  TIP3      H2            -22.1941845848       -4.9453941813       32.4835724573  TIP3      934             0.0000000000
     27703      1135  TIP3      OH2           -20.2469666649      -10.9057121681       22.4542166884  TIP3      935             0.0000000000
     27704      1135  TIP3      H1            -20.3775897393      -10.5224259519       21.5835684278  TIP3      935             0.0000000000
     27705      1135  TIP3      H2            -19.9940631047      -10.1348585217       22.9953709385  TIP3      935             0.0000000000
     27706      1136  TIP3      OH2           -22.3074887409      -11.7776045083       26.6491635241  TIP3      936             0.0000000000
     27707      1136  TIP3      H1            -22.6486344291      -12.6466386145       26.3791996539  TIP3      936             0.0000000000
     27708      1136  TIP3      H2            -22.5562183210      -11.7806680614       27.6014607702  TIP3      936             0.0000000000
     27709      1137  TIP3      OH2           -36.6693001724       -9.0046516163       30.7773318138  TIP3      937             0.0000000000
     27710      1137  TIP3      H1            -36.4012630112       -9.2889906685       29.8945721523  TIP3      937             0.0000000000
     27711      1137  TIP3      H2            -35.8578770372       -9.2524511363       31.2606281667  TIP3      937             0.0000000000
     27712      1138  TIP3      OH2           -21.2176487752       -9.8397540784       36.2526412121  TIP3      938             0.0000000000
     27713      1138  TIP3      H1            -20.7660951567      -10.7033439489       36.3975841213  TIP3      938             0.0000000000
     27714      1138  TIP3      H2            -20.5052848567       -9.1732895238       36.2197184345  TIP3      938             0.0000000000
     27715      1139  TIP3      OH2           -20.1070531906      -12.2892729904       36.6247385166  TIP3      939             0.0000000000
     27716      1139  TIP3      H1            -21.0244478091      -12.5983877877       36.4326579680  TIP3      939             0.0000000000
     27717      1139  TIP3      H2            -19.6101035949      -13.1331327959       36.7704966210  TIP3      939             0.0000000000
     27718      1140  TIP3      OH2           -22.9376597815      -13.9065665509       25.0780251671  TIP3      940             0.0000000000
     27719      1140  TIP3      H1            -22.8206813625      -14.8792665759       25.0747852910  TIP3      940             0.0000000000
     27720      1140  TIP3      H2            -22.0197432537      -13.6568165207       24.8566218550  TIP3      940             0.0000000000
     27721      1141  TIP3      OH2           -21.8318424853      -13.5240878249       30.4662606296  TIP3      941             0.0000000000
     27722      1141  TIP3      H1            -20.8605934799      -13.3990751025       30.5439887813  TIP3      941             0.0000000000
     27723      1141  TIP3      H2            -22.0736111062      -13.4456454630       31.4058728786  TIP3      941             0.0000000000
     27724      1142  TIP3      OH2           -21.8789568097      -12.8054266576       33.0965885180  TIP3      942             0.0000000000
     27725      1142  TIP3      H1            -22.7186428828      -12.5513300935       33.5333220150  TIP3      942             0.0000000000
     27726      1142  TIP3      H2            -21.4724448860      -11.9376526024       32.8722670014  TIP3      942             0.0000000000
     27727      1143  TIP3      OH2           -37.2283161413      -14.6615822866       36.2152405653  TIP3      943             0.0000000000
     27728      1143  TIP3      H1            -36.4798039386      -14.5664812702       36.8499788964  TIP3      943             0.0000000000
     27729      1143  TIP3      H2            -37.2628402097      -15.6253361474       36.0973221257  TIP3      943             0.0000000000
     27730      1144  TIP3      OH2           -19.4834027121      -18.4006545067       38.3576995687  TIP3      944             0.0000000000
     27731      1144  TIP3      H1            -19.0318744353      -19.1433192899       37.9195924150  TIP3      944             0.0000000000
     27732      1144  TIP3      H2            -19.6226645735      -17.7754261833       37.6042197315  TIP3      944             0.0000000000
     27733      1145  TIP3      OH2           -21.9789409446      -16.6492349652       25.2788451912  TIP3      945             0.0000000000
     27734      1145  TIP3      H1            -21.6695338159      -17.1976764449       26.0326003073  TIP3      945             0.0000000000
     27735      1145  TIP3      H2            -22.4381071377      -17.3045425634       24.7268878639  TIP3      945             0.0000000000
     27736      1146  TIP3      OH2           -37.5710719306      -13.2235143145       30.7048126150  TIP3      946             0.0000000000
     27737      1146  TIP3      H1            -36.9421118600      -13.1451752116       29.9638054876  TIP3      946             0.0000000000
     27738      1146  TIP3      H2            -37.3553295069      -12.4346932247       31.2213714063  TIP3      946             0.0000000000
     27739      1147  TIP3      OH2           -20.2280903100      -16.6856022145       36.4889445936  TIP3      947             0.0000000000
     27740      1147  TIP3      H1            -21.1075652200      -16.2600775347       36.5896694466  TIP3      947             0.0000000000
     27741      1147  TIP3      H2            -20.4706368477      -17.2764775830       35.7527418845  TIP3      947             0.0000000000
     27742      1148  TIP3      OH2           -20.0564678067      -17.1277642591       21.4169316439  TIP3      948             0.0000000000
     27743      1148  TIP3      H1            -19.3384268534      -17.7678707171       21.3710509004  TIP3      948             0.0000000000
     27744      1148  TIP3      H2            -19.5756817968      -16.2966807643       21.5473351054  TIP3      948             0.0000000000
     27745      1149  TIP3      OH2           -22.9831902611       -1.8911021806       26.9444383918  TIP3      949             0.0000000000
     27746      1149  TIP3      H1            -22.2484624208       -1.7715317915       26.3101656450  TIP3      949             0.0000000000
     27747      1149  TIP3      H2            -22.7636947687       -1.2864619850       27.6716010958  TIP3      949             0.0000000000
     27748      1150  TIP3      OH2           -37.6657706190      -18.4125750543       33.3225089972  TIP3      950             0.0000000000
     27749      1150  TIP3      H1            -38.3798055763      -18.4292987030       33.9793024393  TIP3      950             0.0000000000
     27750      1150  TIP3      H2            -38.0294564239      -17.8406749944       32.6368169977  TIP3      950             0.0000000000
     27751      1151  TIP3      OH2           -35.8537491659       -5.0572301499       37.1497736286  TIP3      951             0.0000000000
     27752      1151  TIP3      H1            -36.6375288128       -5.2200308558       36.6139324916  TIP3      951             0.0000000000
     27753      1151  TIP3      H2            -35.7330462002       -5.8991567000       37.6168235607  TIP3      951             0.0000000000
     27754      1152  TIP3      OH2           -32.7380141337       -3.4971599611       33.7520829677  TIP3      952             0.0000000000
     27755      1152  TIP3      H1            -32.8071357327       -2.5981147518       33.3647108285  TIP3      952             0.0000000000
     27756      1152  TIP3      H2            -31.7780390574       -3.6660192384       33.6973630669  TIP3      952             0.0000000000
     27757      1153  TIP3      OH2           -28.5068811893       -2.3583376535       36.1385303204  TIP3      953             0.0000000000
     27758      1153  TIP3      H1            -28.4213874480       -2.8448530358       36.9814450234  TIP3      953             0.0000000000
     27759      1153  TIP3      H2            -27.6014146023       -2.0118858292       36.0095312981  TIP3      953             0.0000000000
     27760      1154  TIP3      OH2           -26.2958654001       -0.8496849578       35.6007865882  TIP3      954             0.0000000000
     27761      1154  TIP3      H1            -25.5925304528       -1.4221010394       35.2726213154  TIP3      954             0.0000000000
     27762      1154  TIP3      H2            -25.9796207697       -0.6258364137       36.5045660991  TIP3      954             0.0000000000
     27763      1155  TIP3      OH2           -21.2149762703      -18.8403308207       34.9227359968  TIP3      955             0.0000000000
     27764      1155  TIP3      H1            -21.9064321774      -18.4239584911       34.3843495122  TIP3      955             0.0000000000
     27765      1155  TIP3      H2            -21.1260541957      -19.7125783371       34.4683368887  TIP3      955             0.0000000000
     27766      1156  TIP3      OH2           -35.1977006084       -0.5820176799       33.6006148788  TIP3      956             0.0000000000
     27767      1156  TIP3      H1            -36.0603930715       -0.2668939549       33.2513949100  TIP3      956             0.0000000000
     27768      1156  TIP3      H2            -35.4006226442       -0.7368879615       34.5394121533  TIP3      956             0.0000000000
     27769      1157  TIP3      OH2           -32.8691431843       -1.0652829400       32.4623150524  TIP3      957             0.0000000000
     27770      1157  TIP3      H1            -33.8083225760       -0.9858976773       32.7601313114  TIP3      957             0.0000000000
     27771      1157  TIP3      H2            -32.8433524855       -0.3879626287       31.7713772356  TIP3      957             0.0000000000
     27772      1158  TIP3      OH2           -28.3954863376       -1.5236519279       31.9159268050  TIP3      958             0.0000000000
     27773      1158  TIP3      H1            -29.0373005342       -1.2647016365       31.2260642755  TIP3      958             0.0000000000
     27774      1158  TIP3      H2            -28.2708115083       -0.6393265945       32.3102619530  TIP3      958             0.0000000000
     27775      1159  TIP3      OH2           -26.0820845767       -2.5271628030       33.1079614935  TIP3      959             0.0000000000
     27776      1159  TIP3      H1            -26.7365717567       -2.1960434063       32.4569872926  TIP3      959             0.0000000000
     27777      1159  TIP3      H2            -25.4077166927       -1.8414937058       32.9873723539  TIP3      959             0.0000000000
     27778      1160  TIP3      OH2           -23.4938172628       -0.9960850048       32.8532524195  TIP3      960             0.0000000000
     27779      1160  TIP3      H1            -23.3123322274       -0.0873234049       32.5436225642  TIP3      960             0.0000000000
     27780      1160  TIP3      H2            -23.3659209657       -1.4937717528       32.0105257592  TIP3      960             0.0000000000
     27781      1161  TIP3      OH2           -35.3890219753       -1.9252970011       30.4055395650  TIP3      961             0.0000000000
     27782      1161  TIP3      H1            -35.7017573845       -2.5228883474       31.1252579655  TIP3      961             0.0000000000
     27783      1161  TIP3      H2            -34.5630381407       -2.3806043201       30.1230202482  TIP3      961             0.0000000000
     27784      1162  TIP3      OH2           -33.3969789873       -3.2620431478       29.1438832450  TIP3      962             0.0000000000
     27785      1162  TIP3      H1            -33.7485848848       -4.1495280863       29.2977397375  TIP3      962             0.0000000000
     27786      1162  TIP3      H2            -32.4894879586       -3.3353385044       29.5415536375  TIP3      962             0.0000000000
     27787      1163  TIP3      OH2           -31.1363229336       -3.5725611366       30.5405167085  TIP3      963             0.0000000000
     27788      1163  TIP3      H1            -30.6827285720       -4.4301620286       30.5630210263  TIP3      963             0.0000000000
     27789      1163  TIP3      H2            -30.8705920377       -3.2366014260       31.4129319305  TIP3      963             0.0000000000
     27790      1164  TIP3      OH2           -28.3660923607      -17.9429301738       29.0740131252  TIP3      964             0.0000000000
     27791      1164  TIP3      H1            -29.0074902022      -18.6707528097       28.9902281311  TIP3      964             0.0000000000
     27792      1164  TIP3      H2            -27.9883444038      -17.8337805893       28.1913526297  TIP3      964             0.0000000000
     27793      1165  TIP3      OH2           -22.4691132620      -19.1668038697       29.0880245827  TIP3      965             0.0000000000
     27794      1165  TIP3      H1            -21.8236656489      -18.6326920689       28.5648358938  TIP3      965             0.0000000000
     27795      1165  TIP3      H2            -23.3228446030      -18.9039796530       28.6756167490  TIP3      965             0.0000000000
     27796      1166  TIP3      OH2           -20.8435258822      -17.9246993659       27.4027397531  TIP3      966             0.0000000000
     27797      1166  TIP3      H1            -20.2156021477      -18.5487276554       26.9665196113  TIP3      966             0.0000000000
     27798      1166  TIP3      H2            -20.2532755969      -17.1411661048       27.5522272639  TIP3      966             0.0000000000
     27799      1167  TIP3      OH2           -30.6777254206      -18.9390160872       26.7186104845  TIP3      967             0.0000000000
     27800      1167  TIP3      H1            -30.1609136833      -18.2084040408       26.3458681485  TIP3      967             0.0000000000
     27801      1167  TIP3      H2            -30.4938743181      -18.9220885881       27.6698988093  TIP3      967             0.0000000000
     27802      1168  TIP3      OH2           -24.9767082269      -18.7227021511       27.9919764551  TIP3      968             0.0000000000
     27803      1168  TIP3      H1            -25.5351953041      -18.4940449067       27.2309430246  TIP3      968             0.0000000000
     27804      1168  TIP3      H2            -25.4616527955      -19.5066190819       28.3447451865  TIP3      968             0.0000000000
     27805      1169  TIP3      OH2           -23.9105817203      -18.9373801687       23.6542395167  TIP3      969             0.0000000000
     27806      1169  TIP3      H1            -24.4959305813      -18.2184072519       23.9435579011  TIP3      969             0.0000000000
     27807      1169  TIP3      H2            -24.3073309695      -19.6985517589       24.1306238018  TIP3      969             0.0000000000
     27808      1170  TIP3      OH2           -37.1072139085       -2.8213931425       23.2608745116  TIP3      970             0.0000000000
     27809      1170  TIP3      H1            -38.0155944430       -2.6349389208       22.9897067896  TIP3      970             0.0000000000
     27810      1170  TIP3      H2            -37.0877471201       -2.2612003106       24.0694151914  TIP3      970             0.0000000000
     27811      1171  TIP3      OH2           -29.7833956475      -17.4215871751       23.6395395938  TIP3      971             0.0000000000
     27812      1171  TIP3      H1            -30.7769617589      -17.4750277757       23.6500316431  TIP3      971             0.0000000000
     27813      1171  TIP3      H2            -29.6853901212      -16.5262517219       24.0160347127  TIP3      971             0.0000000000
     27814      1172  TIP3      OH2           -27.5665873601       -2.0554232417       21.9625164375  TIP3      972             0.0000000000
     27815      1172  TIP3      H1            -26.8324494408       -1.5983669767       21.5107298618  TIP3      972             0.0000000000
     27816      1172  TIP3      H2            -28.0198634810       -2.3740560732       21.1485382650  TIP3      972             0.0000000000
     27817      1173  TIP3      OH2           -21.2988228895       -2.2388397802       24.9741755512  TIP3      973             0.0000000000
     27818      1173  TIP3      H1            -21.9173550065       -2.8394699883       24.5291716691  TIP3      973             0.0000000000
     27819      1173  TIP3      H2            -21.2815120669       -1.4937883318       24.3345988414  TIP3      973             0.0000000000
     27820      1174  TIP3      OH2           -35.8718495726      -18.1226754364       36.5328417841  TIP3      974             0.0000000000
     27821      1174  TIP3      H1            -36.3306698600      -18.9961145225       36.4977916668  TIP3      974             0.0000000000
     27822      1174  TIP3      H2            -34.9942638429      -18.3910624984       36.8670484516  TIP3      974             0.0000000000
     27823      1175  TIP3      OH2           -33.5170945983      -18.7113589722       38.2508464736  TIP3      975             0.0000000000
     27824      1175  TIP3      H1            -32.6257170011      -19.0045464683       37.9844090376  TIP3      975             0.0000000000
     27825      1175  TIP3      H2            -33.8086251162      -19.5343696039       38.6851963122  TIP3      975             0.0000000000
     27826      1176  TIP3      OH2           -25.1369559395      -19.5194656664       38.3095162011  TIP3      976             0.0000000000
     27827      1176  TIP3      H1            -25.0785669121      -20.1230929669       39.0878068066  TIP3      976             0.0000000000
     27828      1176  TIP3      H2            -24.2125063397      -19.5960868786       37.9725442357  TIP3      976             0.0000000000
     27829      1177  TIP3      OH2           -21.9432687136       -3.4012066677       36.7235447064  TIP3      977             0.0000000000
     27830      1177  TIP3      H1            -22.6576122146       -3.4631536537       36.0426855710  TIP3      977             0.0000000000
     27831      1177  TIP3      H2            -22.0397203969       -2.4836664262       37.0232106775  TIP3      977             0.0000000000
     27832      1178  TIP3      OH2            -7.3068706471       -9.4730738080       26.5953321479  TIP3      978             0.0000000000
     27833      1178  TIP3      H1             -7.5176840110       -8.5353866551       26.6222057395  TIP3      978             0.0000000000
     27834      1178  TIP3      H2             -8.0513595517       -9.7857859104       26.0492425672  TIP3      978             0.0000000000
     27835      1179  TIP3      OH2            -8.4673474749      -10.5719615221       30.1767396811  TIP3      979             0.0000000000
     27836      1179  TIP3      H1             -8.3928779629      -10.9959773778       31.0641370308  TIP3      979             0.0000000000
     27837      1179  TIP3      H2             -9.0865626952      -11.2233169682       29.7717947755  TIP3      979             0.0000000000
     27838      1180  TIP3      OH2           -16.4584733840      -10.5659519198       31.9088362084  TIP3      980             0.0000000000
     27839      1180  TIP3      H1            -16.5168669154      -11.4112859116       32.3858005757  TIP3      980             0.0000000000
     27840      1180  TIP3      H2            -15.5084801450      -10.3843272988       31.9446650556  TIP3      980             0.0000000000
     27841      1181  TIP3      OH2           -15.3529227247       -6.1212524960       30.0151404465  TIP3      981             0.0000000000
     27842      1181  TIP3      H1            -15.6290199169       -7.0367585688       29.8071382573  TIP3      981             0.0000000000
     27843      1181  TIP3      H2            -14.3948289728       -6.1961896548       29.8560875275  TIP3      981             0.0000000000
     27844      1182  TIP3      OH2           -18.6510540502      -12.7695854911       25.5486246343  TIP3      982             0.0000000000
     27845      1182  TIP3      H1            -19.0076304328      -11.9088742099       25.8209549927  TIP3      982             0.0000000000
     27846      1182  TIP3      H2            -19.4273405275      -13.1469816694       25.1013214861  TIP3      982             0.0000000000
     27847      1183  TIP3      OH2           -18.2735692905      -10.5256202274       28.1419142171  TIP3      983             0.0000000000
     27848      1183  TIP3      H1            -17.7075306989      -11.2955093158       28.3676922175  TIP3      983             0.0000000000
     27849      1183  TIP3      H2            -17.6438894405       -9.8627646213       27.8006103300  TIP3      983             0.0000000000
     27850      1184  TIP3      OH2            -7.9199573611       -2.1210845169       28.5476568913  TIP3      984             0.0000000000
     27851      1184  TIP3      H1             -7.8340155238       -2.6530143204       27.7348461313  TIP3      984             0.0000000000
     27852      1184  TIP3      H2             -8.1440457356       -2.7837110152       29.2196377098  TIP3      984             0.0000000000
     27853      1185  TIP3      OH2           -10.3753179429       -7.9835194031       31.0404882679  TIP3      985             0.0000000000
     27854      1185  TIP3      H1             -9.8777918076       -8.4859467332       30.3787581095  TIP3      985             0.0000000000
     27855      1185  TIP3      H2             -9.6159276159       -7.6776776895       31.5847287694  TIP3      985             0.0000000000
     27856      1186  TIP3      OH2            -1.8845650692      -16.2432490730       31.2082595256  TIP3      986             0.0000000000
     27857      1186  TIP3      H1             -1.7441166327      -15.7341193702       32.0362905403  TIP3      986             0.0000000000
     27858      1186  TIP3      H2             -1.0972198718      -15.9924389153       30.7025650120  TIP3      986             0.0000000000
     27859      1187  TIP3      OH2            -6.7055481672      -13.3016653051       31.4774463426  TIP3      987             0.0000000000
     27860      1187  TIP3      H1             -6.5972016885      -14.2680168626       31.4212304101  TIP3      987             0.0000000000
     27861      1187  TIP3      H2             -7.0094521823      -13.0751845221       30.5767985415  TIP3      987             0.0000000000
     27862      1188  TIP3      OH2           -13.8347410574      -14.6005036648       28.8967205640  TIP3      988             0.0000000000
     27863      1188  TIP3      H1            -13.9283324534      -14.0950104939       28.0650993779  TIP3      988             0.0000000000
     27864      1188  TIP3      H2            -13.4615986769      -15.4290877353       28.5255358110  TIP3      988             0.0000000000
     27865      1189  TIP3      OH2            -6.0650530837      -14.8802186900       27.1685560935  TIP3      989             0.0000000000
     27866      1189  TIP3      H1             -5.4098334628      -15.4488460653       27.6212686346  TIP3      989             0.0000000000
     27867      1189  TIP3      H2             -5.7459223775      -14.8787162246       26.2554055919  TIP3      989             0.0000000000
     27868      1190  TIP3      OH2           -17.3199563680      -13.0785878670       28.8024669523  TIP3      990             0.0000000000
     27869      1190  TIP3      H1            -16.7413199332      -13.4861601665       29.4808065826  TIP3      990             0.0000000000
     27870      1190  TIP3      H2            -16.9149871704      -13.4211810899       27.9773577900  TIP3      990             0.0000000000
     27871      1191  TIP3      OH2           -12.6021353987      -11.2118674601       28.5805003417  TIP3      991             0.0000000000
     27872      1191  TIP3      H1            -11.7608795522      -11.5385858979       28.9492668790  TIP3      991             0.0000000000
     27873      1191  TIP3      H2            -12.8357965033      -11.9465273899       27.9706391751  TIP3      991             0.0000000000
     27874      1192  TIP3      OH2            -1.6246314074      -15.0464624077       33.5725741801  TIP3      992             0.0000000000
     27875      1192  TIP3      H1             -2.0333357438      -14.1945341297       33.2787085576  TIP3      992             0.0000000000
     27876      1192  TIP3      H2             -1.2238400687      -14.7705112457       34.4050003741  TIP3      992             0.0000000000
     27877      1193  TIP3      OH2           -15.0775874323      -16.4564698585       32.4229248841  TIP3      993             0.0000000000
     27878      1193  TIP3      H1            -15.4371833018      -15.9434167549       31.6715264818  TIP3      993             0.0000000000
     27879      1193  TIP3      H2            -15.7070770413      -16.2182198532       33.1361773597  TIP3      993             0.0000000000
     27880      1194  TIP3      OH2           -12.7605424915       -8.7760030834       32.1464094458  TIP3      994             0.0000000000
     27881      1194  TIP3      H1            -13.2939556086       -8.0481806117       32.5284885286  TIP3      994             0.0000000000
     27882      1194  TIP3      H2            -12.0717103186       -8.2845661720       31.6463677684  TIP3      994             0.0000000000
     27883      1195  TIP3      OH2            -3.9232104080      -15.6617424319       28.7795156392  TIP3      995             0.0000000000
     27884      1195  TIP3      H1             -4.1726337039      -16.4424208842       29.2733829055  TIP3      995             0.0000000000
     27885      1195  TIP3      H2             -3.6069030034      -15.0497323032       29.4736015374  TIP3      995             0.0000000000
     27886      1196  TIP3      OH2           -15.7460184166      -14.2787263606       30.6082046265  TIP3      996             0.0000000000
     27887      1196  TIP3      H1            -15.1410846371      -13.7958540454       31.2172433671  TIP3      996             0.0000000000
     27888      1196  TIP3      H2            -15.0863001000      -14.4946918984       29.8999176014  TIP3      996             0.0000000000
     27889      1197  TIP3      OH2           -13.9595765575       -6.5128080311       33.0872654904  TIP3      997             0.0000000000
     27890      1197  TIP3      H1            -14.1611300191       -5.8514128125       32.4079817893  TIP3      997             0.0000000000
     27891      1197  TIP3      H2            -14.8394757460       -6.6357514041       33.5055890629  TIP3      997             0.0000000000
     27892      1198  TIP3      OH2           -18.1235258235       -7.0709655186       24.1724802440  TIP3      998             0.0000000000
     27893      1198  TIP3      H1            -17.9287257077       -6.4387104866       23.4614390239  TIP3      998             0.0000000000
     27894      1198  TIP3      H2            -18.0238639368       -6.4712831408       24.9467414082  TIP3      998             0.0000000000
     27895      1199  TIP3      OH2            -4.6533329778      -16.8214427077       32.1251846609  TIP3      999             0.0000000000
     27896      1199  TIP3      H1             -5.4057997705      -16.5443401231       31.5530395283  TIP3      999             0.0000000000
     27897      1199  TIP3      H2             -3.8962294020      -16.6854843483       31.5291482143  TIP3      999             0.0000000000
     27898      1200  TIP3      OH2           -11.3112240180      -18.8689259242       30.0716835387  TIP3      1000            0.0000000000
     27899      1200  TIP3      H1            -11.6532342139      -19.5859450097       29.5200137457  TIP3      1000            0.0000000000
     27900      1200  TIP3      H2            -12.1313666523      -18.3212936860       30.1490388304  TIP3      1000            0.0000000000
     27901      1201  TIP3      OH2            -3.4482603157       -7.0755262320       34.6618610893  TIP3      1001            0.0000000000
     27902      1201  TIP3      H1             -3.3185324732       -7.8090220013       34.0138137082  TIP3      1001            0.0000000000
     27903      1201  TIP3      H2             -3.4233569050       -6.3205734571       34.0343845645  TIP3      1001            0.0000000000
     27904      1202  TIP3      OH2            -8.7795163755      -10.3748959997       24.2690406034  TIP3      1002            0.0000000000
     27905      1202  TIP3      H1             -9.5300399379       -9.7864078202       24.0008784440  TIP3      1002            0.0000000000
     27906      1202  TIP3      H2             -8.0893742995      -10.0544861647       23.6624452980  TIP3      1002            0.0000000000
     27907      1203  TIP3      OH2            -8.6518042209      -12.0994932883       20.9136674504  TIP3      1003            0.0000000000
     27908      1203  TIP3      H1             -8.1924672165      -11.7058688872       21.6765850623  TIP3      1003            0.0000000000
     27909      1203  TIP3      H2             -8.9134596525      -12.9726093361       21.2617610556  TIP3      1003            0.0000000000
     27910      1204  TIP3      OH2            -1.3716620046      -10.7496305672       32.5030291413  TIP3      1004            0.0000000000
     27911      1204  TIP3      H1             -1.9645283345       -9.9841789532       32.6322192006  TIP3      1004            0.0000000000
     27912      1204  TIP3      H2             -0.8234200030      -10.4291163584       31.7669331352  TIP3      1004            0.0000000000
     27913      1205  TIP3      OH2            -5.0115677106      -10.0799008492       25.2801379078  TIP3      1005            0.0000000000
     27914      1205  TIP3      H1             -5.8432394074       -9.8831977302       25.7631046554  TIP3      1005            0.0000000000
     27915      1205  TIP3      H2             -4.5109582333      -10.6243265965       25.9300019206  TIP3      1005            0.0000000000
     27916      1206  TIP3      OH2            -5.4095138857      -11.7916182090       34.3263188620  TIP3      1006            0.0000000000
     27917      1206  TIP3      H1             -5.6228666321      -10.8906805807       34.6156837175  TIP3      1006            0.0000000000
     27918      1206  TIP3      H2             -5.9242039539      -11.8263408537       33.4966662737  TIP3      1006            0.0000000000
     27919      1207  TIP3      OH2           -13.4980241246       -9.3489791988       26.8965079279  TIP3      1007            0.0000000000
     27920      1207  TIP3      H1            -13.8897728157       -9.8779407539       26.1621489805  TIP3      1007            0.0000000000
     27921      1207  TIP3      H2            -13.0856216774      -10.0392236809       27.4612300823  TIP3      1007            0.0000000000
     27922      1208  TIP3      OH2           -12.3456853287       -6.1574355334       29.8729922109  TIP3      1008            0.0000000000
     27923      1208  TIP3      H1            -12.2253500181       -6.3845793677       28.9300094680  TIP3      1008            0.0000000000
     27924      1208  TIP3      H2            -11.6383789519       -6.6687192417       30.3109913794  TIP3      1008            0.0000000000
     27925      1209  TIP3      OH2           -13.7656504936      -10.8713195383       30.8809834741  TIP3      1009            0.0000000000
     27926      1209  TIP3      H1            -13.4122733537      -10.8909323522       29.9572278246  TIP3      1009            0.0000000000
     27927      1209  TIP3      H2            -13.2282594259      -10.1591332278       31.3005831605  TIP3      1009            0.0000000000
     27928      1210  TIP3      OH2            -6.7458817933       -4.8441598872       31.5623105683  TIP3      1010            0.0000000000
     27929      1210  TIP3      H1             -7.0956214334       -4.2544721721       32.2567035253  TIP3      1010            0.0000000000
     27930      1210  TIP3      H2             -7.0477128373       -5.7254641403       31.8275219980  TIP3      1010            0.0000000000
     27931      1211  TIP3      OH2           -12.4253796901       -6.2003081306       35.2570638539  TIP3      1011            0.0000000000
     27932      1211  TIP3      H1            -13.1630805094       -5.7500590913       35.7121671363  TIP3      1011            0.0000000000
     27933      1211  TIP3      H2            -12.8543024636       -6.3403979866       34.3851420536  TIP3      1011            0.0000000000
     27934      1212  TIP3      OH2            -6.4404305550      -10.7245483749       22.7754561809  TIP3      1012            0.0000000000
     27935      1212  TIP3      H1             -6.0282663409      -11.1577760117       23.5519874335  TIP3      1012            0.0000000000
     27936      1212  TIP3      H2             -5.8059871002      -10.0117352334       22.5949607204  TIP3      1012            0.0000000000
     27937      1213  TIP3      OH2           -15.2296420684       -9.9210873839       34.6395627625  TIP3      1013            0.0000000000
     27938      1213  TIP3      H1            -15.4929815720       -9.0186741098       34.8542073681  TIP3      1013            0.0000000000
     27939      1213  TIP3      H2            -16.0771015695      -10.3408827143       34.4269025754  TIP3      1013            0.0000000000
     27940      1214  TIP3      OH2           -14.3341502815       -4.6294611758       36.2321441598  TIP3      1014            0.0000000000
     27941      1214  TIP3      H1            -14.0822502877       -4.2859330376       35.3449210931  TIP3      1014            0.0000000000
     27942      1214  TIP3      H2            -15.2946034003       -4.5516724263       36.1577657163  TIP3      1014            0.0000000000
     27943      1215  TIP3      OH2           -14.9511038414      -10.4478736075       24.7404337779  TIP3      1015            0.0000000000
     27944      1215  TIP3      H1            -15.2371958819       -9.6019173652       24.3083725129  TIP3      1015            0.0000000000
     27945      1215  TIP3      H2            -15.5165403222      -11.0895410118       24.3105378891  TIP3      1015            0.0000000000
     27946      1216  TIP3      OH2            -0.6671689697       -4.8239934048       21.8592476549  TIP3      1016            0.0000000000
     27947      1216  TIP3      H1             -1.2821170788       -4.0748819076       21.8259742086  TIP3      1016            0.0000000000
     27948      1216  TIP3      H2             -0.4837900537       -4.9482711505       20.9244544393  TIP3      1016            0.0000000000
     27949      1217  TIP3      OH2           -18.3404646504       -8.0338745620       33.8443528026  TIP3      1017            0.0000000000
     27950      1217  TIP3      H1            -18.7147462390       -8.1533921835       32.9589985414  TIP3      1017            0.0000000000
     27951      1217  TIP3      H2            -18.1226576253       -8.9725158985       34.0399176021  TIP3      1017            0.0000000000
     27952      1218  TIP3      OH2           -18.6206109913       -5.2666935608       30.1280106774  TIP3      1018            0.0000000000
     27953      1218  TIP3      H1            -17.6505297484       -5.3119389599       30.1890708810  TIP3      1018            0.0000000000
     27954      1218  TIP3      H2            -18.8016950148       -4.5704699648       30.7678500319  TIP3      1018            0.0000000000
     27955      1219  TIP3      OH2            -0.8404495107       -4.7565950371       36.4127210526  TIP3      1019            0.0000000000
     27956      1219  TIP3      H1             -1.1791045845       -5.0794404889       35.5606195354  TIP3      1019            0.0000000000
     27957      1219  TIP3      H2             -1.6595924646       -4.3006719148       36.7356933896  TIP3      1019            0.0000000000
     27958      1220  TIP3      OH2            -9.8465066460       -5.0378817811       35.1480056008  TIP3      1020            0.0000000000
     27959      1220  TIP3      H1             -9.8420945139       -4.1967527563       35.6377657137  TIP3      1020            0.0000000000
     27960      1220  TIP3      H2            -10.7795199929       -5.3427955149       35.1930760339  TIP3      1020            0.0000000000
     27961      1221  TIP3      OH2            -9.4593411112       -1.0492329694       24.5814110477  TIP3      1021            0.0000000000
     27962      1221  TIP3      H1             -9.3794887973       -1.0836066032       23.6135748429  TIP3      1021            0.0000000000
     27963      1221  TIP3      H2             -9.2144759748       -0.1381337448       24.8051835906  TIP3      1021            0.0000000000
     27964      1222  TIP3      OH2           -15.6175824705       -2.4885020923       26.7581348252  TIP3      1022            0.0000000000
     27965      1222  TIP3      H1            -15.3828420711       -2.8011136241       27.6629849327  TIP3      1022            0.0000000000
     27966      1222  TIP3      H2            -16.5292397088       -2.8085550207       26.6655272079  TIP3      1022            0.0000000000
     27967      1223  TIP3      OH2            -3.7646786653      -12.9831792026       36.4636636754  TIP3      1023            0.0000000000
     27968      1223  TIP3      H1             -4.3535509955      -12.5353927570       35.8217027311  TIP3      1023            0.0000000000
     27969      1223  TIP3      H2             -3.8946720238      -13.9146382230       36.1817725842  TIP3      1023            0.0000000000
     27970      1224  TIP3      OH2           -16.1902314044       -6.8212412696       34.6374550150  TIP3      1024            0.0000000000
     27971      1224  TIP3      H1            -16.3240328673       -7.2330644965       35.5186965061  TIP3      1024            0.0000000000
     27972      1224  TIP3      H2            -17.0087640762       -7.1472367963       34.1874858874  TIP3      1024            0.0000000000
     27973      1225  TIP3      OH2           -13.7294899155      -17.9364031201       30.6462888281  TIP3      1025            0.0000000000
     27974      1225  TIP3      H1            -14.5590245773      -17.7989064657       30.1539811884  TIP3      1025            0.0000000000
     27975      1225  TIP3      H2            -14.0421801979      -17.7440254116       31.5512033531  TIP3      1025            0.0000000000
     27976      1226  TIP3      OH2            -8.8513136650      -18.5715904231       33.5960892729  TIP3      1026            0.0000000000
     27977      1226  TIP3      H1             -8.5034959689      -18.9547533517       34.4277474968  TIP3      1026            0.0000000000
     27978      1226  TIP3      H2             -9.8243176566      -18.5545711403       33.7498286283  TIP3      1026            0.0000000000
     27979      1227  TIP3      OH2            -6.3963497266      -14.4343502555       35.0735702001  TIP3      1027            0.0000000000
     27980      1227  TIP3      H1             -6.9659412370      -14.6895987371       35.8384383930  TIP3      1027            0.0000000000
     27981      1227  TIP3      H2             -6.4962174289      -13.4738143206       35.0266367903  TIP3      1027            0.0000000000
     27982      1228  TIP3      OH2           -13.4906466871      -13.3711962282       31.8576257814  TIP3      1028            0.0000000000
     27983      1228  TIP3      H1            -14.0728502420      -13.0684690141       32.5683234970  TIP3      1028            0.0000000000
     27984      1228  TIP3      H2            -13.4495907238      -12.5573280157       31.3153868213  TIP3      1028            0.0000000000
     27985      1229  TIP3      OH2           -13.6958993843      -12.8078683111       26.7276067977  TIP3      1029            0.0000000000
     27986      1229  TIP3      H1            -14.6180949853      -13.0186364230       26.5006238144  TIP3      1029            0.0000000000
     27987      1229  TIP3      H2            -13.3374861410      -12.6475741150       25.8217528150  TIP3      1029            0.0000000000
     27988      1230  TIP3      OH2            -8.0958623941      -12.4645291394       25.8606158464  TIP3      1030            0.0000000000
     27989      1230  TIP3      H1             -8.4352755130      -11.7413121271       25.2805876164  TIP3      1030            0.0000000000
     27990      1230  TIP3      H2             -7.4343875721      -12.8550037983       25.2515266248  TIP3      1030            0.0000000000
     27991      1231  TIP3      OH2            -9.3697641801      -12.2252957842       36.9494343944  TIP3      1031            0.0000000000
     27992      1231  TIP3      H1             -9.7453376923      -13.0705725686       37.2761701866  TIP3      1031            0.0000000000
     27993      1231  TIP3      H2             -8.5608098615      -12.1636433419       37.4855178945  TIP3      1031            0.0000000000
     27994      1232  TIP3      OH2            -7.2230729109      -12.9888296147       28.6231248012  TIP3      1032            0.0000000000
     27995      1232  TIP3      H1             -7.4733717193      -12.6002739772       27.7582605739  TIP3      1032            0.0000000000
     27996      1232  TIP3      H2             -6.9371981135      -13.8643457722       28.2710925551  TIP3      1032            0.0000000000
     27997      1233  TIP3      OH2           -16.1239869344      -13.1517762536       33.1728956824  TIP3      1033            0.0000000000
     27998      1233  TIP3      H1            -15.7045158096      -12.9582815710       34.0169113993  TIP3      1033            0.0000000000
     27999      1233  TIP3      H2            -16.4555473536      -14.0547119442       33.3359312650  TIP3      1033            0.0000000000
     28000      1234  TIP3      OH2           -19.0981302859      -15.8939966885       27.6229779021  TIP3      1034            0.0000000000
     28001      1234  TIP3      H1            -18.4116744082      -15.8542072663       28.3022046996  TIP3      1034            0.0000000000
     28002      1234  TIP3      H2            -18.5898292032      -16.0061020930       26.8084288178  TIP3      1034            0.0000000000
     28003      1235  TIP3      OH2           -18.2963385800      -15.1765386907       22.7023036383  TIP3      1035            0.0000000000
     28004      1235  TIP3      H1            -17.5742589365      -14.7918748565       22.1929231049  TIP3      1035            0.0000000000
     28005      1235  TIP3      H2            -18.8728846067      -14.4063407515       22.8895646499  TIP3      1035            0.0000000000
     28006      1236  TIP3      OH2            -8.2193892061      -11.4696645562       32.7050504488  TIP3      1036            0.0000000000
     28007      1236  TIP3      H1             -7.5553825742      -12.1105026185       32.3667838425  TIP3      1036            0.0000000000
     28008      1236  TIP3      H2             -8.7585583609      -12.0527340907       33.2892591958  TIP3      1036            0.0000000000
     28009      1237  TIP3      OH2           -10.6216948373      -15.3331790935       27.6961778932  TIP3      1037            0.0000000000
     28010      1237  TIP3      H1            -11.4498141516      -15.8458679614       27.5424230486  TIP3      1037            0.0000000000
     28011      1237  TIP3      H2            -10.2609982819      -15.7787520688       28.4684767584  TIP3      1037            0.0000000000
     28012      1238  TIP3      OH2           -16.2324398349      -13.8702894821       26.3138504918  TIP3      1038            0.0000000000
     28013      1238  TIP3      H1            -17.1064562517      -13.7158286304       25.8925559496  TIP3      1038            0.0000000000
     28014      1238  TIP3      H2            -15.8522905994      -14.6028009855       25.7848716185  TIP3      1038            0.0000000000
     28015      1239  TIP3      OH2           -12.6246111791      -13.0719298875       24.2224419167  TIP3      1039            0.0000000000
     28016      1239  TIP3      H1            -11.8123719129      -13.4994742765       24.5778246820  TIP3      1039            0.0000000000
     28017      1239  TIP3      H2            -12.8201437050      -13.6607996028       23.4760472740  TIP3      1039            0.0000000000
     28018      1240  TIP3      OH2            -6.6991861199      -16.1003840383       30.7227099857  TIP3      1040            0.0000000000
     28019      1240  TIP3      H1             -7.3296272237      -16.1547670444       31.4824401245  TIP3      1040            0.0000000000
     28020      1240  TIP3      H2             -7.0485004997      -16.7782125607       30.0988669298  TIP3      1040            0.0000000000
     28021      1241  TIP3      OH2            -3.7945764938       -0.4247901137       37.2883805983  TIP3      1041            0.0000000000
     28022      1241  TIP3      H1             -3.4974282546       -0.0628595474       36.4299689830  TIP3      1041            0.0000000000
     28023      1241  TIP3      H2             -2.9760427695       -0.3794790816       37.8040481643  TIP3      1041            0.0000000000
     28024      1242  TIP3      OH2           -16.1297463168       -7.9698286771       37.1104674708  TIP3      1042            0.0000000000
     28025      1242  TIP3      H1            -15.4381421690       -8.4669588912       37.5929364776  TIP3      1042            0.0000000000
     28026      1242  TIP3      H2            -16.9228532366       -8.3840738541       37.5142786020  TIP3      1042            0.0000000000
     28027      1243  TIP3      OH2           -10.1571657727      -12.6114204671       29.5818467571  TIP3      1043            0.0000000000
     28028      1243  TIP3      H1             -9.6309403479      -12.9917376272       28.8632925693  TIP3      1043            0.0000000000
     28029      1243  TIP3      H2            -10.3346579086      -13.4160990891       30.1047400876  TIP3      1043            0.0000000000
     28030      1244  TIP3      OH2           -15.6075180437      -16.8524026099       25.4012623607  TIP3      1044            0.0000000000
     28031      1244  TIP3      H1            -15.9609864179      -17.3892459446       26.1315703060  TIP3      1044            0.0000000000
     28032      1244  TIP3      H2            -14.6954859828      -16.7630909411       25.7586132003  TIP3      1044            0.0000000000
     28033      1245  TIP3      OH2           -10.9494004986      -14.4809527666       31.7873121581  TIP3      1045            0.0000000000
     28034      1245  TIP3      H1            -11.8155428062      -14.0224059665       31.7578830282  TIP3      1045            0.0000000000
     28035      1245  TIP3      H2            -10.5042838586      -14.0097152767       32.5127323403  TIP3      1045            0.0000000000
     28036      1246  TIP3      OH2           -10.6616930154       -8.5259042265       23.7304800328  TIP3      1046            0.0000000000
     28037      1246  TIP3      H1            -11.5312923719       -8.9319758548       23.5117248988  TIP3      1046            0.0000000000
     28038      1246  TIP3      H2            -10.8571200331       -7.9857654745       24.5163502821  TIP3      1046            0.0000000000
     28039      1247  TIP3      OH2            -3.1623009241       -8.6654563498       32.5289480836  TIP3      1047            0.0000000000
     28040      1247  TIP3      H1             -2.7311928025       -8.2576909194       31.7422908318  TIP3      1047            0.0000000000
     28041      1247  TIP3      H2             -3.9866482106       -8.9815880927       32.1181057188  TIP3      1047            0.0000000000
     28042      1248  TIP3      OH2            -9.4429316954       -7.7185407637       34.9033236866  TIP3      1048            0.0000000000
     28043      1248  TIP3      H1             -9.7884430168       -8.0844573430       35.7303297299  TIP3      1048            0.0000000000
     28044      1248  TIP3      H2             -9.5349267046       -6.7584210470       35.0649753670  TIP3      1048            0.0000000000
     28045      1249  TIP3      OH2            -6.1772980997      -13.3722133836       23.7844628732  TIP3      1049            0.0000000000
     28046      1249  TIP3      H1             -5.3034012479      -13.7742166555       23.9879926765  TIP3      1049            0.0000000000
     28047      1249  TIP3      H2             -6.1258583250      -13.2726306846       22.8249380360  TIP3      1049            0.0000000000
     28048      1250  TIP3      OH2           -15.3830865515       -8.8240984829       29.2200650399  TIP3      1050            0.0000000000
     28049      1250  TIP3      H1            -14.7829976671       -8.8533833979       28.4531407367  TIP3      1050            0.0000000000
     28050      1250  TIP3      H2            -15.0467933936       -9.5401739922       29.7831031581  TIP3      1050            0.0000000000
     28051      1251  TIP3      OH2           -18.3524239851      -10.6258220752       34.5368241238  TIP3      1051            0.0000000000
     28052      1251  TIP3      H1            -18.6283817387      -10.9989021567       35.3881310364  TIP3      1051            0.0000000000
     28053      1251  TIP3      H2            -18.9858991960      -11.0174024794       33.8974882438  TIP3      1051            0.0000000000
     28054      1252  TIP3      OH2           -11.6840611245      -10.7276994701       36.6978970569  TIP3      1052            0.0000000000
     28055      1252  TIP3      H1            -12.0920370448      -11.3217408042       36.0585812525  TIP3      1052            0.0000000000
     28056      1252  TIP3      H2            -10.7738316522      -11.1161058090       36.7590535628  TIP3      1052            0.0000000000
     28057      1253  TIP3      OH2            -6.6554067963       -5.5736192212       35.1281005121  TIP3      1053            0.0000000000
     28058      1253  TIP3      H1             -7.4713296489       -5.4609758140       34.6157787655  TIP3      1053            0.0000000000
     28059      1253  TIP3      H2             -6.9076561084       -5.0795749237       35.9375922775  TIP3      1053            0.0000000000
     28060      1254  TIP3      OH2            -1.4877069679      -13.5140049914       23.3940778010  TIP3      1054            0.0000000000
     28061      1254  TIP3      H1             -1.4909388713      -14.3490452744       22.8748536220  TIP3      1054            0.0000000000
     28062      1254  TIP3      H2             -0.6806365794      -13.1020963493       23.0790056965  TIP3      1054            0.0000000000
     28063      1255  TIP3      OH2            -1.0529129533       -7.5924391952       35.8826156437  TIP3      1055            0.0000000000
     28064      1255  TIP3      H1             -1.9441670301       -7.5468568019       35.4674694480  TIP3      1055            0.0000000000
     28065      1255  TIP3      H2             -0.5113169822       -7.6907072699       35.0581743952  TIP3      1055            0.0000000000
     28066      1256  TIP3      OH2            -5.4394042120      -10.1408026839       31.0159476614  TIP3      1056            0.0000000000
     28067      1256  TIP3      H1             -6.3893020679      -10.0691769352       30.8145885336  TIP3      1056            0.0000000000
     28068      1256  TIP3      H2             -5.1249696848      -10.6960349564       30.2680548205  TIP3      1056            0.0000000000
     28069      1257  TIP3      OH2           -13.2060278775       -5.2659286453       27.1763517928  TIP3      1057            0.0000000000
     28070      1257  TIP3      H1            -12.7164831964       -4.4710760506       26.9074486899  TIP3      1057            0.0000000000
     28071      1257  TIP3      H2            -14.0884270561       -5.1010289874       26.8170602146  TIP3      1057            0.0000000000
     28072      1258  TIP3      OH2           -11.4801563261       -7.5143223408       26.4228226455  TIP3      1058            0.0000000000
     28073      1258  TIP3      H1            -12.1290490110       -6.7825902093       26.4735045033  TIP3      1058            0.0000000000
     28074      1258  TIP3      H2            -12.0142996350       -8.2954038955       26.6599064427  TIP3      1058            0.0000000000
     28075      1259  TIP3      OH2           -11.1767433319       -3.5642004349       33.1561805422  TIP3      1059            0.0000000000
     28076      1259  TIP3      H1            -10.5606944599       -2.8886514692       32.8226089257  TIP3      1059            0.0000000000
     28077      1259  TIP3      H2            -10.6167546384       -3.9979396834       33.8356248248  TIP3      1059            0.0000000000
     28078      1260  TIP3      OH2           -13.1801957412       -2.6051363176       25.7442440412  TIP3      1060            0.0000000000
     28079      1260  TIP3      H1            -14.0994564149       -2.6369456039       26.0827921715  TIP3      1060            0.0000000000
     28080      1260  TIP3      H2            -12.8968884977       -1.7363579697       26.1075007639  TIP3      1060            0.0000000000
     28081      1261  TIP3      OH2            -8.1214654391       -7.5290185183       32.3546767002  TIP3      1061            0.0000000000
     28082      1261  TIP3      H1             -8.4586293039       -7.7428062502       33.2643156777  TIP3      1061            0.0000000000
     28083      1261  TIP3      H2             -7.6376771299       -8.3475368165       32.1322286198  TIP3      1061            0.0000000000
     28084      1262  TIP3      OH2            -4.7972217351       -3.3019074800       34.7545430235  TIP3      1062            0.0000000000
     28085      1262  TIP3      H1             -5.7076280230       -3.6484318079       34.7778082801  TIP3      1062            0.0000000000
     28086      1262  TIP3      H2             -4.8784277550       -2.5337697525       34.1361357621  TIP3      1062            0.0000000000
     28087      1263  TIP3      OH2            -1.1626350296       -1.7633066656       22.0038008216  TIP3      1063            0.0000000000
     28088      1263  TIP3      H1             -0.3266813848       -1.2891831874       21.7956714695  TIP3      1063            0.0000000000
     28089      1263  TIP3      H2             -1.7768314260       -1.1335158930       21.6177520755  TIP3      1063            0.0000000000
     28090      1264  TIP3      OH2           -16.7396627907      -15.6673604148       34.3543809012  TIP3      1064            0.0000000000
     28091      1264  TIP3      H1            -17.4109068249      -15.2225342778       34.9080508883  TIP3      1064            0.0000000000
     28092      1264  TIP3      H2            -16.8293368250      -16.5795155345       34.6713982730  TIP3      1064            0.0000000000
     28093      1265  TIP3      OH2            -4.6694466178       -8.4270793182       23.1793083632  TIP3      1065            0.0000000000
     28094      1265  TIP3      H1             -4.7651805083       -8.9587168520       24.0008892143  TIP3      1065            0.0000000000
     28095      1265  TIP3      H2             -4.1903366817       -7.6517129856       23.5105703803  TIP3      1065            0.0000000000
     28096      1266  TIP3      OH2           -17.2171227782       -4.0067598421       32.4527211339  TIP3      1066            0.0000000000
     28097      1266  TIP3      H1            -16.5127710377       -4.6308709533       32.6838338658  TIP3      1066            0.0000000000
     28098      1266  TIP3      H2            -17.3587756342       -3.5316110421       33.2796517573  TIP3      1066            0.0000000000
     28099      1267  TIP3      OH2           -12.6145389444       -5.7727541234       22.7204812560  TIP3      1067            0.0000000000
     28100      1267  TIP3      H1            -11.8241936646       -6.3069044552       22.8891261437  TIP3      1067            0.0000000000
     28101      1267  TIP3      H2            -12.3586622290       -4.8341160554       22.8851092584  TIP3      1067            0.0000000000
     28102      1268  TIP3      OH2           -15.9101305240       -8.3855977218       23.2960227922  TIP3      1068            0.0000000000
     28103      1268  TIP3      H1            -16.7052642167       -7.9073467111       23.6026696646  TIP3      1068            0.0000000000
     28104      1268  TIP3      H2            -15.4724394502       -7.6817145167       22.7683755460  TIP3      1068            0.0000000000
     28105      1269  TIP3      OH2            -8.0078302058      -15.7608285667       33.1157442866  TIP3      1069            0.0000000000
     28106      1269  TIP3      H1             -7.4163175654      -15.4051306891       33.8015206425  TIP3      1069            0.0000000000
     28107      1269  TIP3      H2             -8.2980704901      -16.6000312737       33.5055692191  TIP3      1069            0.0000000000
     28108      1270  TIP3      OH2            -7.7473621539      -16.4031573400       24.1613557201  TIP3      1070            0.0000000000
     28109      1270  TIP3      H1             -7.8441583049      -16.3068694148       23.1905260185  TIP3      1070            0.0000000000
     28110      1270  TIP3      H2             -6.8398937362      -16.7338645282       24.1832437865  TIP3      1070            0.0000000000
     28111      1271  TIP3      OH2           -10.3650377839      -14.2874272523       25.2576801032  TIP3      1071            0.0000000000
     28112      1271  TIP3      H1             -9.5167589187      -13.8400967295       25.4374258673  TIP3      1071            0.0000000000
     28113      1271  TIP3      H2            -10.5874788024      -14.6954694598       26.1291873058  TIP3      1071            0.0000000000
     28114      1272  TIP3      OH2            -9.3310823781      -13.3098304760       34.3006042653  TIP3      1072            0.0000000000
     28115      1272  TIP3      H1             -9.2850427293      -13.0162415662       35.2398204029  TIP3      1072            0.0000000000
     28116      1272  TIP3      H2             -8.9765592469      -14.2153628605       34.2954880594  TIP3      1072            0.0000000000
     28117      1273  TIP3      OH2            -9.2399820887      -17.4295572683       26.6149794570  TIP3      1073            0.0000000000
     28118      1273  TIP3      H1             -9.8732280375      -16.6935688013       26.5636288641  TIP3      1073            0.0000000000
     28119      1273  TIP3      H2             -8.6605815941      -17.2870222755       25.8435389682  TIP3      1073            0.0000000000
     28120      1274  TIP3      OH2           -12.4096155403       -3.1260346279       23.2606920935  TIP3      1074            0.0000000000
     28121      1274  TIP3      H1            -11.5018315230       -2.8154524331       23.3404589647  TIP3      1074            0.0000000000
     28122      1274  TIP3      H2            -12.6937632228       -3.0758384505       24.2008370653  TIP3      1074            0.0000000000
     28123      1275  TIP3      OH2            -3.8027175973      -15.4910352400       35.2772445360  TIP3      1075            0.0000000000
     28124      1275  TIP3      H1             -4.7373913826      -15.3885117680       34.9987438921  TIP3      1075            0.0000000000
     28125      1275  TIP3      H2             -3.3056085951      -15.4823637026       34.4390238757  TIP3      1075            0.0000000000
     28126      1276  TIP3      OH2            -4.6791468843      -11.9268222346       29.0026635234  TIP3      1076            0.0000000000
     28127      1276  TIP3      H1             -5.5013880376      -12.4615321167       28.9780206481  TIP3      1076            0.0000000000
     28128      1276  TIP3      H2             -4.0845929710      -12.4586133218       29.5869963483  TIP3      1076            0.0000000000
     28129      1277  TIP3      OH2           -15.2091987934       -6.0809568505       21.9674994531  TIP3      1077            0.0000000000
     28130      1277  TIP3      H1            -14.2502608683       -6.0019692840       22.2063811754  TIP3      1077            0.0000000000
     28131      1277  TIP3      H2            -15.2314476815       -5.8112557704       21.0355721992  TIP3      1077            0.0000000000
     28132      1278  TIP3      OH2           -16.9248313051      -13.3759532650       20.2797199439  TIP3      1078            0.0000000000
     28133      1278  TIP3      H1            -16.2021040050      -12.7572665045       20.4499052812  TIP3      1078            0.0000000000
     28134      1278  TIP3      H2            -17.6942360014      -12.8039493701       20.3628050807  TIP3      1078            0.0000000000
     28135      1279  TIP3      OH2            -3.8663147684       -2.5867993442       30.7093343945  TIP3      1079            0.0000000000
     28136      1279  TIP3      H1             -3.8749974452       -1.9022753273       30.0001890691  TIP3      1079            0.0000000000
     28137      1279  TIP3      H2             -2.9069387346       -2.6543208756       30.8583082546  TIP3      1079            0.0000000000
     28138      1280  TIP3      OH2           -16.4617805507      -18.5098057083       29.9057859517  TIP3      1080            0.0000000000
     28139      1280  TIP3      H1            -16.3744865995      -18.5707239983       28.9227922204  TIP3      1080            0.0000000000
     28140      1280  TIP3      H2            -16.6466796787      -19.4510423173       30.1137984636  TIP3      1080            0.0000000000
     28141      1281  TIP3      OH2           -17.7421425154       -4.8612146213       25.7179783453  TIP3      1081            0.0000000000
     28142      1281  TIP3      H1            -18.3839941158       -4.1473402070       25.8097305648  TIP3      1081            0.0000000000
     28143      1281  TIP3      H2            -17.1420882232       -4.4526640778       25.0721222406  TIP3      1081            0.0000000000
     28144      1282  TIP3      OH2           -18.1794601859       -1.7433293916       37.2181218018  TIP3      1082            0.0000000000
     28145      1282  TIP3      H1            -17.6149834394       -1.9778900169       37.9932764430  TIP3      1082            0.0000000000
     28146      1282  TIP3      H2            -18.5425039769       -2.6108376483       36.9791418015  TIP3      1082            0.0000000000
     28147      1283  TIP3      OH2           -13.5503980514       -3.2063025887       38.5225471112  TIP3      1083            0.0000000000
     28148      1283  TIP3      H1            -12.6649433025       -3.4691812095       38.8295034619  TIP3      1083            0.0000000000
     28149      1283  TIP3      H2            -13.4492884090       -3.3087492527       37.5638691892  TIP3      1083            0.0000000000
     28150      1284  TIP3      OH2            -7.2053313986       -4.2933993363       37.5179231401  TIP3      1084            0.0000000000
     28151      1284  TIP3      H1             -7.5547520914       -5.1905329341       37.7510216170  TIP3      1084            0.0000000000
     28152      1284  TIP3      H2             -6.3500109760       -4.3006951185       37.9979622029  TIP3      1084            0.0000000000
     28153      1285  TIP3      OH2           -18.6198794782       -8.1612754099       38.2572237722  TIP3      1085            0.0000000000
     28154      1285  TIP3      H1            -19.0003164104       -9.0579731864       38.2621690728  TIP3      1085            0.0000000000
     28155      1285  TIP3      H2            -18.9327236863       -7.8236296589       37.3866298079  TIP3      1085            0.0000000000
     28156      1286  TIP3      OH2           -11.7509871619       -8.1240120129       37.0199460239  TIP3      1086            0.0000000000
     28157      1286  TIP3      H1            -11.9067294406       -7.5762522046       36.2200798461  TIP3      1086            0.0000000000
     28158      1286  TIP3      H2            -11.7957938572       -9.0616594597       36.6939097483  TIP3      1086            0.0000000000
     28159      1287  TIP3      OH2            -5.9158053734       -8.3319973382       35.0461349585  TIP3      1087            0.0000000000
     28160      1287  TIP3      H1             -5.0080159260       -7.9753591582       35.0600044399  TIP3      1087            0.0000000000
     28161      1287  TIP3      H2             -6.3881161355       -7.4826599593       35.1616893370  TIP3      1087            0.0000000000
     28162      1288  TIP3      OH2           -17.0667068300      -10.8701716651       37.6320279254  TIP3      1088            0.0000000000
     28163      1288  TIP3      H1            -16.7004019716      -11.7548901274       37.4809434682  TIP3      1088            0.0000000000
     28164      1288  TIP3      H2            -16.6362937959      -10.5598782379       38.4498617907  TIP3      1088            0.0000000000
     28165      1289  TIP3      OH2           -12.8351134584       -9.7345149890       22.7531281361  TIP3      1089            0.0000000000
     28166      1289  TIP3      H1            -13.4277068053      -10.3122223826       23.2539341003  TIP3      1089            0.0000000000
     28167      1289  TIP3      H2            -12.3262281263      -10.3636760102       22.1922011087  TIP3      1089            0.0000000000
     28168      1290  TIP3      OH2           -13.5757487703      -12.0164432345       34.4263368663  TIP3      1090            0.0000000000
     28169      1290  TIP3      H1            -14.1624973219      -11.2606165658       34.6314152675  TIP3      1090            0.0000000000
     28170      1290  TIP3      H2            -12.8516728415      -11.5431712651       33.9520322757  TIP3      1090            0.0000000000
     28171      1291  TIP3      OH2           -11.2978168927      -11.3720524364       20.9814672674  TIP3      1091            0.0000000000
     28172      1291  TIP3      H1            -11.8536268126      -11.7906390180       20.3153148808  TIP3      1091            0.0000000000
     28173      1291  TIP3      H2            -10.4319108723      -11.8171984077       20.8561271800  TIP3      1091            0.0000000000
     28174      1292  TIP3      OH2            -8.0182720644       -9.0852887316       38.1113385798  TIP3      1092            0.0000000000
     28175      1292  TIP3      H1             -7.3416971124       -9.5967537640       37.6399191111  TIP3      1092            0.0000000000
     28176      1292  TIP3      H2             -8.3388679777       -9.7473258987       38.7528228424  TIP3      1092            0.0000000000
     28177      1293  TIP3      OH2           -12.6910196689      -14.3817576865       35.4930993164  TIP3      1093            0.0000000000
     28178      1293  TIP3      H1            -12.6577088676      -15.0196520989       34.7482236168  TIP3      1093            0.0000000000
     28179      1293  TIP3      H2            -12.8602918417      -13.5305866876       35.0251518040  TIP3      1093            0.0000000000
     28180      1294  TIP3      OH2           -12.5202575267      -16.2619922210       33.2998820447  TIP3      1094            0.0000000000
     28181      1294  TIP3      H1            -12.0071872578      -15.9007865640       32.5487688006  TIP3      1094            0.0000000000
     28182      1294  TIP3      H2            -13.4212424852      -16.2130758584       32.9217223391  TIP3      1094            0.0000000000
     28183      1295  TIP3      OH2           -11.2450161131      -10.6370615221       33.4768908660  TIP3      1095            0.0000000000
     28184      1295  TIP3      H1            -10.3299007049      -10.4126785683       33.2380600380  TIP3      1095            0.0000000000
     28185      1295  TIP3      H2            -11.7185974603       -9.8617238454       33.1180208096  TIP3      1095            0.0000000000
     28186      1296  TIP3      OH2            -6.7477689807      -13.2861746286       38.3882884752  TIP3      1096            0.0000000000
     28187      1296  TIP3      H1             -6.3917337904      -14.1835413298       38.3419611282  TIP3      1096            0.0000000000
     28188      1296  TIP3      H2             -5.9962094179      -12.7505528012       38.6742507386  TIP3      1096            0.0000000000
     28189      1297  TIP3      OH2            -5.2192163847       -9.9271994435       37.0336438326  TIP3      1097            0.0000000000
     28190      1297  TIP3      H1             -5.6433294320       -9.4231303067       36.3033689675  TIP3      1097            0.0000000000
     28191      1297  TIP3      H2             -4.3327419890      -10.0708482735       36.6494265688  TIP3      1097            0.0000000000
     28192      1298  TIP3      OH2           -14.3043798497      -13.6864287604       37.6801077093  TIP3      1098            0.0000000000
     28193      1298  TIP3      H1            -15.1276532749      -14.1203924930       37.3684719269  TIP3      1098            0.0000000000
     28194      1298  TIP3      H2            -13.6765238583      -13.9862617004       36.9936477549  TIP3      1098            0.0000000000
     28195      1299  TIP3      OH2           -11.6394233396      -18.7893543766       33.6306528207  TIP3      1099            0.0000000000
     28196      1299  TIP3      H1            -11.9608859703      -17.8687727248       33.5454820075  TIP3      1099            0.0000000000
     28197      1299  TIP3      H2            -12.3818435024      -19.2711272796       33.2394251762  TIP3      1099            0.0000000000
     28198      1300  TIP3      OH2           -10.7033028998      -14.5455789107       37.6994604671  TIP3      1100            0.0000000000
     28199      1300  TIP3      H1            -11.3331219255      -14.8148055641       38.4004565252  TIP3      1100            0.0000000000
     28200      1300  TIP3      H2            -11.2716021708      -14.6542537777       36.9097901498  TIP3      1100            0.0000000000
     28201      1301  TIP3      OH2            -8.1365841605      -15.2970736321       36.8198523067  TIP3      1101            0.0000000000
     28202      1301  TIP3      H1             -8.9987340881      -15.1253330186       37.2380783531  TIP3      1101            0.0000000000
     28203      1301  TIP3      H2             -7.6743078909      -15.8419528106       37.4873580448  TIP3      1101            0.0000000000
     28204      1302  TIP3      OH2            -6.3783298834      -16.6644896598       38.3848846294  TIP3      1102            0.0000000000
     28205      1302  TIP3      H1             -6.2899564947      -17.6434088431       38.3525063847  TIP3      1102            0.0000000000
     28206      1302  TIP3      H2             -6.4821943566      -16.4821856384       39.3396193951  TIP3      1102            0.0000000000
     28207      1303  TIP3      OH2           -16.4920153141      -15.4073266222       37.6261772812  TIP3      1103            0.0000000000
     28208      1303  TIP3      H1            -16.6198166659      -16.1996637737       37.0763853176  TIP3      1103            0.0000000000
     28209      1303  TIP3      H2            -16.7101730462      -15.7415674547       38.5321573867  TIP3      1103            0.0000000000
     28210      1304  TIP3      OH2           -11.7124641157      -19.2353197021       36.5169431945  TIP3      1104            0.0000000000
     28211      1304  TIP3      H1            -11.0053863601      -19.8976673306       36.6515492380  TIP3      1104            0.0000000000
     28212      1304  TIP3      H2            -11.7875531019      -19.2911289231       35.5428002692  TIP3      1104            0.0000000000
     28213      1305  TIP3      OH2           -11.5967754424      -17.8706161923       38.9038976300  TIP3      1105            0.0000000000
     28214      1305  TIP3      H1            -11.7544250961      -18.2955542566       38.0287902449  TIP3      1105            0.0000000000
     28215      1305  TIP3      H2            -11.9862990922      -16.9768986850       38.7982471979  TIP3      1105            0.0000000000
     28216      1306  TIP3      OH2           -19.2357127895       -0.9919191952       26.2911559124  TIP3      1106            0.0000000000
     28217      1306  TIP3      H1            -19.9591685680       -1.5345428472       25.9195357446  TIP3      1106            0.0000000000
     28218      1306  TIP3      H2            -18.9331141468       -1.5749912229       27.0247930747  TIP3      1106            0.0000000000
     28219      1307  TIP3      OH2           -18.6447802565       -2.7412421528       28.2211565917  TIP3      1107            0.0000000000
     28220      1307  TIP3      H1            -19.0144850327       -3.6155270512       28.4162172490  TIP3      1107            0.0000000000
     28221      1307  TIP3      H2            -18.6337244531       -2.3896819286       29.1374942893  TIP3      1107            0.0000000000
     28222      1308  TIP3      OH2            -1.0937687726       -2.2783275203       30.9811770672  TIP3      1108            0.0000000000
     28223      1308  TIP3      H1             -0.8703820024       -2.1649886154       31.9209363792  TIP3      1108            0.0000000000
     28224      1308  TIP3      H2             -0.7861901380       -1.4313383132       30.6213003844  TIP3      1108            0.0000000000
     28225      1309  TIP3      OH2            -1.8168498739       -2.3187968160       33.7445870398  TIP3      1109            0.0000000000
     28226      1309  TIP3      H1             -2.0767514922       -3.1258430322       33.2482856802  TIP3      1109            0.0000000000
     28227      1309  TIP3      H2             -1.3282723427       -2.6843848102       34.4911725180  TIP3      1109            0.0000000000
     28228      1310  TIP3      OH2            -2.8903857556       -6.6873893719       39.2241554286  TIP3      1110            0.0000000000
     28229      1310  TIP3      H1             -3.7983178193       -6.7597502923       39.6129756449  TIP3      1110            0.0000000000
     28230      1310  TIP3      H2             -2.6420971192       -5.7969743164       39.5800885291  TIP3      1110            0.0000000000
     28231      1311  TIP3      OH2            -1.6478150124       -8.3181882503       24.2210679686  TIP3      1111            0.0000000000
     28232      1311  TIP3      H1             -0.7352918475       -8.0345321979       24.4021241955  TIP3      1111            0.0000000000
     28233      1311  TIP3      H2             -1.7328687932       -9.1526042921       24.7245329710  TIP3      1111            0.0000000000
     28234      1312  TIP3      OH2            -1.3972413531      -10.4556201884       25.9400702580  TIP3      1112            0.0000000000
     28235      1312  TIP3      H1             -2.1248025282      -11.0194219569       26.3113778334  TIP3      1112            0.0000000000
     28236      1312  TIP3      H2             -0.9228729814      -10.1762945114       26.7454647258  TIP3      1112            0.0000000000
     28237      1313  TIP3      OH2            -1.7934527331       -7.6362004500       30.5163849094  TIP3      1113            0.0000000000
     28238      1313  TIP3      H1             -1.0772123740       -8.2955745178       30.4142675432  TIP3      1113            0.0000000000
     28239      1313  TIP3      H2             -1.2823704668       -6.8040565618       30.4953972816  TIP3      1113            0.0000000000
     28240      1314  TIP3      OH2            -3.0561267767       -4.6740857084       33.2005805302  TIP3      1114            0.0000000000
     28241      1314  TIP3      H1             -3.6165950630       -4.1140397153       33.7779928271  TIP3      1114            0.0000000000
     28242      1314  TIP3      H2             -3.6631832325       -4.7434536079       32.4489552896  TIP3      1114            0.0000000000
     28243      1315  TIP3      OH2            -3.4887876943      -11.8908351987       26.6592384151  TIP3      1115            0.0000000000
     28244      1315  TIP3      H1             -3.6736260983      -12.8053253776       26.3463543509  TIP3      1115            0.0000000000
     28245      1315  TIP3      H2             -3.9103666251      -11.8751607833       27.5546082183  TIP3      1115            0.0000000000
     28246      1316  TIP3      OH2           -18.4722487951       -9.4855713920       30.5703231915  TIP3      1116            0.0000000000
     28247      1316  TIP3      H1            -18.5046482248       -9.8693871991       29.6701238821  TIP3      1116            0.0000000000
     28248      1316  TIP3      H2            -17.5816563479       -9.7586468217       30.8941566716  TIP3      1116            0.0000000000
     28249      1317  TIP3      OH2            -2.5005846175       -9.7541607730       36.2345087009  TIP3      1117            0.0000000000
     28250      1317  TIP3      H1             -2.0266993894      -10.6003932147       36.4182114634  TIP3      1117            0.0000000000
     28251      1317  TIP3      H2             -1.7463953900       -9.1725189836       36.0109998267  TIP3      1117            0.0000000000
     28252      1318  TIP3      OH2            -1.2414925702      -11.9812468120       36.8353155520  TIP3      1118            0.0000000000
     28253      1318  TIP3      H1             -2.1331014362      -12.3402415601       36.6301301470  TIP3      1118            0.0000000000
     28254      1318  TIP3      H2             -0.7121652220      -12.8043816924       36.8914435422  TIP3      1118            0.0000000000
     28255      1319  TIP3      OH2            -3.7002589455      -14.0262582298       24.8013738655  TIP3      1119            0.0000000000
     28256      1319  TIP3      H1             -3.5693090682      -14.9170343060       24.4384811237  TIP3      1119            0.0000000000
     28257      1319  TIP3      H2             -3.0043591362      -13.5711160085       24.2797173257  TIP3      1119            0.0000000000
     28258      1320  TIP3      OH2            -3.0424828296      -13.5063942590       30.5332255794  TIP3      1120            0.0000000000
     28259      1320  TIP3      H1             -2.0630032658      -13.4264735142       30.4983965530  TIP3      1120            0.0000000000
     28260      1320  TIP3      H2             -3.1722584165      -13.4688185573       31.4969868862  TIP3      1120            0.0000000000
     28261      1321  TIP3      OH2            -2.9843561724      -12.8371874027       33.2117903773  TIP3      1121            0.0000000000
     28262      1321  TIP3      H1             -3.8610279764      -12.5528154366       33.5392614107  TIP3      1121            0.0000000000
     28263      1321  TIP3      H2             -2.5771490162      -11.9831881792       32.9259130037  TIP3      1121            0.0000000000
     28264      1322  TIP3      OH2           -18.6932192816      -14.4669551398       36.5710048741  TIP3      1122            0.0000000000
     28265      1322  TIP3      H1            -17.8417270519      -14.6436901561       37.0228878319  TIP3      1122            0.0000000000
     28266      1322  TIP3      H2            -19.2071099143      -15.2928370471       36.7088232954  TIP3      1122            0.0000000000
     28267      1323  TIP3      OH2            -0.7024389062      -18.6096311107       38.5123533420  TIP3      1123            0.0000000000
     28268      1323  TIP3      H1             -0.3482593289      -19.3728270901       38.0266208625  TIP3      1123            0.0000000000
     28269      1323  TIP3      H2             -0.8138560505      -17.9558154458       37.7850865089  TIP3      1123            0.0000000000
     28270      1324  TIP3      OH2           -17.6891847644      -16.1364221649       30.2331622046  TIP3      1124            0.0000000000
     28271      1324  TIP3      H1            -17.2806569846      -17.0215603819       30.0772883924  TIP3      1124            0.0000000000
     28272      1324  TIP3      H2            -16.9390922009      -15.5246739948       30.1638705608  TIP3      1124            0.0000000000
     28273      1325  TIP3      OH2           -19.2228824350      -13.1398369113       30.8474613626  TIP3      1125            0.0000000000
     28274      1325  TIP3      H1            -18.6566809112      -13.4330214177       30.1095486596  TIP3      1125            0.0000000000
     28275      1325  TIP3      H2            -18.7620481714      -12.3434443042       31.1354881974  TIP3      1125            0.0000000000
     28276      1326  TIP3      OH2            -1.3691242826      -16.5901422797       36.6986539470  TIP3      1126            0.0000000000
     28277      1326  TIP3      H1             -2.2087752218      -16.1077336404       36.8748025707  TIP3      1126            0.0000000000
     28278      1326  TIP3      H2             -1.6460073897      -17.1138886445       35.9282506898  TIP3      1126            0.0000000000
     28279      1327  TIP3      OH2           -19.2301741628      -16.9372618489       24.5269977817  TIP3      1127            0.0000000000
     28280      1327  TIP3      H1            -20.1842510575      -16.8281155481       24.6856966296  TIP3      1127            0.0000000000
     28281      1327  TIP3      H2            -19.0929890620      -16.3127842432       23.7846509997  TIP3      1127            0.0000000000
     28282      1328  TIP3      OH2           -19.1092512635      -18.3463184675       33.1069186978  TIP3      1128            0.0000000000
     28283      1328  TIP3      H1            -19.7997296290      -18.7070568699       33.7002554240  TIP3      1128            0.0000000000
     28284      1328  TIP3      H2            -19.5815617853      -17.6425423039       32.6285022614  TIP3      1128            0.0000000000
     28285      1329  TIP3      OH2           -17.1236474448       -4.9722675172       37.4207619197  TIP3      1129            0.0000000000
     28286      1329  TIP3      H1            -17.7875438066       -4.9291254156       36.7010247588  TIP3      1129            0.0000000000
     28287      1329  TIP3      H2            -17.5021923101       -4.3153904675       38.0213970104  TIP3      1129            0.0000000000
     28288      1330  TIP3      OH2           -13.7973592003       -3.5521342084       33.7584298839  TIP3      1130            0.0000000000
     28289      1330  TIP3      H1            -13.8111655239       -2.6246577828       33.4402731349  TIP3      1130            0.0000000000
     28290      1330  TIP3      H2            -12.8525478991       -3.7517683084       33.5629669941  TIP3      1130            0.0000000000
     28291      1331  TIP3      OH2            -9.8389723049       -2.4306288181       36.2623571562  TIP3      1131            0.0000000000
     28292      1331  TIP3      H1             -9.7001059603       -2.7073510092       37.1935731720  TIP3      1131            0.0000000000
     28293      1331  TIP3      H2             -8.9530883466       -2.0633551889       36.0539222609  TIP3      1131            0.0000000000
     28294      1332  TIP3      OH2            -7.5730344104       -0.9154920788       35.7811797688  TIP3      1132            0.0000000000
     28295      1332  TIP3      H1             -6.8141738870       -1.2918861032       35.3197484532  TIP3      1132            0.0000000000
     28296      1332  TIP3      H2             -7.1843958043       -0.6385111710       36.6439347425  TIP3      1132            0.0000000000
     28297      1333  TIP3      OH2            -2.3509528919      -18.9730086989       34.8317457809  TIP3      1133            0.0000000000
     28298      1333  TIP3      H1             -3.0844306981      -18.5763692153       34.3286823245  TIP3      1133            0.0000000000
     28299      1333  TIP3      H2             -2.2626609362      -19.8469645047       34.3812209050  TIP3      1133            0.0000000000
     28300      1334  TIP3      OH2           -16.4786358363       -0.5879502259       33.3873891575  TIP3      1134            0.0000000000
     28301      1334  TIP3      H1            -17.1980159275        0.0016581035       33.0758112761  TIP3      1134            0.0000000000
     28302      1334  TIP3      H2            -16.4837084960       -0.3974308733       34.3386667349  TIP3      1134            0.0000000000
     28303      1335  TIP3      OH2           -13.9668168326       -1.0168998587       32.4655608899  TIP3      1135            0.0000000000
     28304      1335  TIP3      H1            -14.9205962097       -0.9073715353       32.6942169133  TIP3      1135            0.0000000000
     28305      1335  TIP3      H2            -13.8533919128       -0.3417912895       31.7657185163  TIP3      1135            0.0000000000
     28306      1336  TIP3      OH2            -9.3226612595       -1.4109768102       31.6917126239  TIP3      1136            0.0000000000
     28307      1336  TIP3      H1            -10.0249778490       -0.9901766077       31.1871702022  TIP3      1136            0.0000000000
     28308      1336  TIP3      H2             -9.0601102778       -0.6883509111       32.2939962495  TIP3      1136            0.0000000000
     28309      1337  TIP3      OH2            -7.3271302985       -2.6820463815       33.0656262299  TIP3      1137            0.0000000000
     28310      1337  TIP3      H1             -7.9831214893       -2.2675858137       32.4674464706  TIP3      1137            0.0000000000
     28311      1337  TIP3      H2             -6.5405389749       -2.1426727770       32.8696654446  TIP3      1137            0.0000000000
     28312      1338  TIP3      OH2            -4.6932728477       -1.4149707373       32.9891781295  TIP3      1138            0.0000000000
     28313      1338  TIP3      H1             -4.3961729813       -0.4926977349       32.8510644710  TIP3      1138            0.0000000000
     28314      1338  TIP3      H2             -4.3909216224       -1.8597863911       32.1633687899  TIP3      1138            0.0000000000
     28315      1339  TIP3      OH2           -16.7717894509       -2.1315397264       30.4540465182  TIP3      1139            0.0000000000
     28316      1339  TIP3      H1            -17.0461935549       -2.7972707209       31.1144281612  TIP3      1139            0.0000000000
     28317      1339  TIP3      H2            -15.9489133899       -2.5279266157       30.0914830365  TIP3      1139            0.0000000000
     28318      1340  TIP3      OH2           -14.6851443609       -3.2501160755       29.1658184097  TIP3      1140            0.0000000000
     28319      1340  TIP3      H1            -14.8245700139       -4.1766887321       29.4477742499  TIP3      1140            0.0000000000
     28320      1340  TIP3      H2            -13.8077678040       -3.0710759397       29.5689474733  TIP3      1140            0.0000000000
     28321      1341  TIP3      OH2           -12.3366039972       -3.2936934079       30.4816397253  TIP3      1141            0.0000000000
     28322      1341  TIP3      H1            -12.1245647549       -4.2227172443       30.2548541988  TIP3      1141            0.0000000000
     28323      1341  TIP3      H2            -12.1371670399       -3.2798719312       31.4290697587  TIP3      1141            0.0000000000
     28324      1342  TIP3      OH2            -8.4973335105      -17.3739119252       29.2619909529  TIP3      1142            0.0000000000
     28325      1342  TIP3      H1             -9.1847198307      -17.9413608303       29.6312452366  TIP3      1142            0.0000000000
     28326      1342  TIP3      H2             -8.8080876716      -17.2788127219       28.3352238954  TIP3      1142            0.0000000000
     28327      1343  TIP3      OH2            -4.0237273411      -19.4753192170       28.9179881107  TIP3      1143            0.0000000000
     28328      1343  TIP3      H1             -3.3307663361      -18.8824463331       28.5563437110  TIP3      1143            0.0000000000
     28329      1343  TIP3      H2             -4.5146094094      -19.6632433796       28.1016531463  TIP3      1143            0.0000000000
     28330      1344  TIP3      OH2            -2.1377610146      -18.0128798249       27.3125958276  TIP3      1144            0.0000000000
     28331      1344  TIP3      H1             -1.4731626562      -18.5745857162       26.8847227528  TIP3      1144            0.0000000000
     28332      1344  TIP3      H2             -1.8580585358      -17.1295385091       27.0015265877  TIP3      1144            0.0000000000
     28333      1345  TIP3      OH2           -16.6476114597      -18.7874218499       27.2026011320  TIP3      1145            0.0000000000
     28334      1345  TIP3      H1            -17.4156607933      -18.9291650126       26.6241310884  TIP3      1145            0.0000000000
     28335      1345  TIP3      H2            -16.1131626466      -19.5787857724       26.9804851407  TIP3      1145            0.0000000000
     28336      1346  TIP3      OH2           -17.5425147743      -18.8625203928       22.5317413433  TIP3      1146            0.0000000000
     28337      1346  TIP3      H1            -17.0357050677      -18.1714823833       22.0334442495  TIP3      1146            0.0000000000
     28338      1346  TIP3      H2            -17.9313140224      -18.3298487804       23.2543888921  TIP3      1146            0.0000000000
     28339      1347  TIP3      OH2           -11.7710020019      -20.0356438396       26.6802168835  TIP3      1147            0.0000000000
     28340      1347  TIP3      H1            -10.8411483406      -19.7755874386       26.6048719521  TIP3      1147            0.0000000000
     28341      1347  TIP3      H2            -12.1914735386      -19.1667130292       26.8603197227  TIP3      1147            0.0000000000
     28342      1348  TIP3      OH2           -17.8914143782       -2.8031890597       23.8455097037  TIP3      1148            0.0000000000
     28343      1348  TIP3      H1            -18.7176829559       -3.0017139582       23.3662281666  TIP3      1148            0.0000000000
     28344      1348  TIP3      H2            -17.6614005990       -1.9774220272       23.3785137443  TIP3      1148            0.0000000000
     28345      1349  TIP3      OH2           -16.1426584320      -16.9717413624       21.3368149991  TIP3      1149            0.0000000000
     28346      1349  TIP3      H1            -15.3503107595      -17.4118755286       21.0211887248  TIP3      1149            0.0000000000
     28347      1349  TIP3      H2            -15.7423198340      -16.3347180781       21.9447200616  TIP3      1149            0.0000000000
     28348      1350  TIP3      OH2           -11.2178247712      -16.6230138976       23.8749303096  TIP3      1150            0.0000000000
     28349      1350  TIP3      H1            -10.3843155759      -16.8265908756       24.3067146224  TIP3      1150            0.0000000000
     28350      1350  TIP3      H2            -10.9546103765      -15.8606170477       23.3306897113  TIP3      1150            0.0000000000
     28351      1351  TIP3      OH2            -8.8667374943       -1.4220691563       21.8126323487  TIP3      1151            0.0000000000
     28352      1351  TIP3      H1             -8.2584037211       -0.8885170487       21.2699484459  TIP3      1151            0.0000000000
     28353      1351  TIP3      H2             -8.2853443926       -2.0597860951       22.2608065795  TIP3      1151            0.0000000000
     28354      1352  TIP3      OH2            -2.5499257040       -2.4648950411       24.7475026147  TIP3      1152            0.0000000000
     28355      1352  TIP3      H1             -2.2259297276       -2.7294246023       23.8756749420  TIP3      1152            0.0000000000
     28356      1352  TIP3      H2             -2.9894195570       -1.6255796339       24.5487899124  TIP3      1152            0.0000000000
     28357      1353  TIP3      OH2           -16.9530266639      -18.1175483097       36.4303833596  TIP3      1153            0.0000000000
     28358      1353  TIP3      H1            -17.4267907009      -18.9764471917       36.4375418762  TIP3      1153            0.0000000000
     28359      1353  TIP3      H2            -16.2470499136      -18.2857217957       37.0977017714  TIP3      1153            0.0000000000
     28360      1354  TIP3      OH2           -14.9266259452      -18.7946611602       38.2090694368  TIP3      1154            0.0000000000
     28361      1354  TIP3      H1            -13.9948501554      -18.9431182247       37.9557294309  TIP3      1154            0.0000000000
     28362      1354  TIP3      H2            -15.1503932978      -19.6999414894       38.5046020926  TIP3      1154            0.0000000000
     28363      1355  TIP3      OH2            -6.2868405520      -19.4701443749       38.2159404967  TIP3      1155            0.0000000000
     28364      1355  TIP3      H1             -6.1973132286      -20.0904441270       38.9796241112  TIP3      1155            0.0000000000
     28365      1355  TIP3      H2             -5.3708075828      -19.4984896772       37.8627735568  TIP3      1155            0.0000000000
     28366      1356  TIP3      OH2            -2.9612960869       -3.2686807494       36.6104203410  TIP3      1156            0.0000000000
     28367      1356  TIP3      H1             -3.5488303005       -3.3013666837       35.8175318467  TIP3      1156            0.0000000000
     28368      1356  TIP3      H2             -3.2193168485       -2.3967748013       36.9569862288  TIP3      1156            0.0000000000
     28369      1357  TIP3      OH2            11.4293618542       -9.3432529719       26.6859189861  TIP3      1157            0.0000000000
     28370      1357  TIP3      H1             11.3228020993       -8.3733028969       26.6567533597  TIP3      1157            0.0000000000
     28371      1357  TIP3      H2             10.6642076440       -9.6187245499       26.1546830586  TIP3      1157            0.0000000000
     28372      1358  TIP3      OH2            10.3150737765      -10.6855526895       30.3975980471  TIP3      1158            0.0000000000
     28373      1358  TIP3      H1             10.5122291899      -10.9902084689       31.3181240090  TIP3      1158            0.0000000000
     28374      1358  TIP3      H2              9.6352860639      -11.3148647999       30.0972887055  TIP3      1158            0.0000000000
     28375      1359  TIP3      OH2             2.4345650752      -10.6611336561       31.6984381266  TIP3      1159            0.0000000000
     28376      1359  TIP3      H1              2.3452274610      -11.3682152582       32.3638198031  TIP3      1159            0.0000000000
     28377      1359  TIP3      H2              3.1263474249      -10.1422712901       32.1479376326  TIP3      1159            0.0000000000
     28378      1360  TIP3      OH2            13.6212231464       -7.5526785127       28.3458363352  TIP3      1160            0.0000000000
     28379      1360  TIP3      H1             13.4063020802       -8.1378447482       29.0866181502  TIP3      1160            0.0000000000
     28380      1360  TIP3      H2             13.8610933029       -6.7150532843       28.7726104274  TIP3      1160            0.0000000000
     28381      1361  TIP3      OH2             3.5686879706       -5.8809980579       29.7987042924  TIP3      1161            0.0000000000
     28382      1361  TIP3      H1              3.2025075473       -6.7861776061       29.6926103342  TIP3      1161            0.0000000000
     28383      1361  TIP3      H2              4.5171749316       -6.1128526422       29.7980015258  TIP3      1161            0.0000000000
     28384      1362  TIP3      OH2             0.2279780292      -12.7768528273       25.5699571833  TIP3      1162            0.0000000000
     28385      1362  TIP3      H1             -0.1646364593      -11.8948779174       25.7053469873  TIP3      1162            0.0000000000
     28386      1362  TIP3      H2             -0.5399048501      -13.2793437491       25.2296997870  TIP3      1162            0.0000000000
     28387      1363  TIP3      OH2             0.3925181610      -10.3834554512       28.1243600386  TIP3      1163            0.0000000000
     28388      1363  TIP3      H1              0.7890599150      -11.2820366839       28.1924210337  TIP3      1163            0.0000000000
     28389      1363  TIP3      H2              1.1864371808       -9.8137482689       28.1107876506  TIP3      1163            0.0000000000
     28390      1364  TIP3      OH2            10.8994344748       -2.2058374743       28.7333286294  TIP3      1164            0.0000000000
     28391      1364  TIP3      H1             11.6830902013       -2.4988304659       28.2108680073  TIP3      1164            0.0000000000
     28392      1364  TIP3      H2             10.7347848623       -3.0164636223       29.2336362590  TIP3      1164            0.0000000000
     28393      1365  TIP3      OH2             8.3377476676       -7.7740133658       31.3289744662  TIP3      1165            0.0000000000
     28394      1365  TIP3      H1              8.7017146240       -8.1233404092       30.5126390554  TIP3      1165            0.0000000000
     28395      1365  TIP3      H2              9.1936644817       -7.5865324773       31.7834648161  TIP3      1165            0.0000000000
     28396      1366  TIP3      OH2            17.2540465230      -16.1796819305       31.1951181225  TIP3      1166            0.0000000000
     28397      1366  TIP3      H1             17.3298542792      -15.6782779100       32.0352004670  TIP3      1166            0.0000000000
     28398      1366  TIP3      H2             18.0934896016      -15.9484899645       30.7576707050  TIP3      1166            0.0000000000
     28399      1367  TIP3      OH2            12.1926622218      -13.3783466088       31.3182291521  TIP3      1167            0.0000000000
     28400      1367  TIP3      H1             12.3561000996      -14.3327458562       31.4143541892  TIP3      1167            0.0000000000
     28401      1367  TIP3      H2             11.8180356924      -13.3246078287       30.4156120422  TIP3      1167            0.0000000000
     28402      1368  TIP3      OH2             5.1072679692      -15.2913218612       28.0419510119  TIP3      1168            0.0000000000
     28403      1368  TIP3      H1              5.3523798762      -14.3978354946       27.7017577145  TIP3      1168            0.0000000000
     28404      1368  TIP3      H2              4.7205008536      -15.6376017592       27.2335316703  TIP3      1168            0.0000000000
     28405      1369  TIP3      OH2            12.1378045814      -15.3833668383       27.0392236717  TIP3      1169            0.0000000000
     28406      1369  TIP3      H1             12.9734490706      -15.8499731291       27.1376398666  TIP3      1169            0.0000000000
     28407      1369  TIP3      H2             12.2061267526      -15.0355448056       26.1316292192  TIP3      1169            0.0000000000
     28408      1370  TIP3      OH2             1.4524709879      -12.8204166250       28.9196291402  TIP3      1170            0.0000000000
     28409      1370  TIP3      H1              2.0573359634      -13.3226046207       29.5010436457  TIP3      1170            0.0000000000
     28410      1370  TIP3      H2              1.8092418080      -13.0897723264       28.0511216174  TIP3      1170            0.0000000000
     28411      1371  TIP3      OH2             6.5214808501      -11.1553232444       28.4906820753  TIP3      1171            0.0000000000
     28412      1371  TIP3      H1              7.2452456506      -11.6373189808       28.9269061905  TIP3      1171            0.0000000000
     28413      1371  TIP3      H2              6.2368601849      -11.8424469508       27.8570835163  TIP3      1171            0.0000000000
     28414      1372  TIP3      OH2            17.0970330927      -15.0781066574       33.6812118235  TIP3      1172            0.0000000000
     28415      1372  TIP3      H1             16.7511609525      -14.2474825304       33.2592025559  TIP3      1172            0.0000000000
     28416      1372  TIP3      H2             17.4512449807      -14.7107908786       34.5017207365  TIP3      1172            0.0000000000
     28417      1373  TIP3      OH2             3.9504010921      -16.4436635418       32.2750702504  TIP3      1173            0.0000000000
     28418      1373  TIP3      H1              3.6194743774      -15.8693065653       31.5558997540  TIP3      1173            0.0000000000
     28419      1373  TIP3      H2              3.3086181630      -16.1777929061       32.9702956247  TIP3      1173            0.0000000000
     28420      1374  TIP3      OH2            10.7296167337       -6.6158862102       25.6117744839  TIP3      1174            0.0000000000
     28421      1374  TIP3      H1             10.6755807507       -6.6498591166       24.6325711792  TIP3      1174            0.0000000000
     28422      1374  TIP3      H2             10.3879528925       -5.7058605553       25.7451965477  TIP3      1174            0.0000000000
     28423      1375  TIP3      OH2             6.0453900555       -8.7479432035       32.1411160658  TIP3      1175            0.0000000000
     28424      1375  TIP3      H1              5.4908382546       -8.0285855093       32.5012120044  TIP3      1175            0.0000000000
     28425      1375  TIP3      H2              6.8192122107       -8.2456219557       31.7704285752  TIP3      1175            0.0000000000
     28426      1376  TIP3      OH2             3.2949794670      -14.5580739207       30.1101591591  TIP3      1176            0.0000000000
     28427      1376  TIP3      H1              3.9156011578      -13.9517490289       30.5801260496  TIP3      1176            0.0000000000
     28428      1376  TIP3      H2              3.8481724670      -14.8629083316       29.3615177313  TIP3      1176            0.0000000000
     28429      1377  TIP3      OH2             4.7402625091       -6.6283642249       33.2755359060  TIP3      1177            0.0000000000
     28430      1377  TIP3      H1              4.6985725362       -5.7588597160       32.8396306486  TIP3      1177            0.0000000000
     28431      1377  TIP3      H2              3.8263754589       -6.6730925621       33.6534119586  TIP3      1177            0.0000000000
     28432      1378  TIP3      OH2             0.8392671768       -7.1633747366       23.8811172459  TIP3      1178            0.0000000000
     28433      1378  TIP3      H1              0.1722894936       -6.6820041210       23.3553835202  TIP3      1178            0.0000000000
     28434      1378  TIP3      H2              1.1238846588       -6.4646299780       24.5212558375  TIP3      1178            0.0000000000
     28435      1379  TIP3      OH2            14.3436049433       -4.9353617449       29.6287218999  TIP3      1179            0.0000000000
     28436      1379  TIP3      H1             14.5351511566       -5.6064085384       30.3240524610  TIP3      1179            0.0000000000
     28437      1379  TIP3      H2             13.7689578409       -4.3604379462       30.1549040263  TIP3      1179            0.0000000000
     28438      1380  TIP3      OH2            14.4318189423      -17.3630389268       32.0196761609  TIP3      1180            0.0000000000
     28439      1380  TIP3      H1             13.6378747445      -17.1250301108       31.4926459007  TIP3      1180            0.0000000000
     28440      1380  TIP3      H2             15.0636863498      -16.6923470882       31.7339631671  TIP3      1180            0.0000000000
     28441      1381  TIP3      OH2             7.3728608533      -18.8454578644       29.6235391762  TIP3      1181            0.0000000000
     28442      1381  TIP3      H1              7.0873555279      -19.7628894956       29.6133450665  TIP3      1181            0.0000000000
     28443      1381  TIP3      H2              6.7394836686      -18.4387344266       30.2301832897  TIP3      1181            0.0000000000
     28444      1382  TIP3      OH2            12.6186822629       -3.6122671383       27.3006560779  TIP3      1182            0.0000000000
     28445      1382  TIP3      H1             13.1880277693       -4.4030433137       27.1754577807  TIP3      1182            0.0000000000
     28446      1382  TIP3      H2             12.7430430692       -3.2320742464       26.3913551900  TIP3      1182            0.0000000000
     28447      1383  TIP3      OH2            13.8968611105       -5.8286477378       26.1542989232  TIP3      1183            0.0000000000
     28448      1383  TIP3      H1             13.8228492984       -6.3696283070       25.3548445015  TIP3      1183            0.0000000000
     28449      1383  TIP3      H2             13.8217948672       -6.4723845696       26.8831332307  TIP3      1183            0.0000000000
     28450      1384  TIP3      OH2            15.4317741734       -7.1896777258       34.7843234812  TIP3      1184            0.0000000000
     28451      1384  TIP3      H1             15.8174670899       -7.9441651528       34.3001457378  TIP3      1184            0.0000000000
     28452      1384  TIP3      H2             14.7990704761       -6.8472393769       34.1012623981  TIP3      1184            0.0000000000
     28453      1385  TIP3      OH2            10.1123961338      -10.3968757780       24.4053843548  TIP3      1185            0.0000000000
     28454      1385  TIP3      H1              9.5655067062       -9.6403466821       24.1081331942  TIP3      1185            0.0000000000
     28455      1385  TIP3      H2             10.6302698688      -10.6530289232       23.6208807160  TIP3      1185            0.0000000000
     28456      1386  TIP3      OH2            17.5976249174      -10.8228997950       32.9690072312  TIP3      1186            0.0000000000
     28457      1386  TIP3      H1             16.8806992442      -10.1634834655       32.8127416052  TIP3      1186            0.0000000000
     28458      1386  TIP3      H2             18.0889100678      -10.7078457627       32.1304080771  TIP3      1186            0.0000000000
     28459      1387  TIP3      OH2            13.6208212353      -10.4144693004       25.3884735903  TIP3      1187            0.0000000000
     28460      1387  TIP3      H1             12.9071407711       -9.9946009592       25.9240450761  TIP3      1187            0.0000000000
     28461      1387  TIP3      H2             14.2609840291      -10.6426781211       26.0933910175  TIP3      1187            0.0000000000
     28462      1388  TIP3      OH2            13.6012940875      -11.7140187658       34.2295959404  TIP3      1188            0.0000000000
     28463      1388  TIP3      H1             13.3754989233      -10.9559232050       34.7745584819  TIP3      1188            0.0000000000
     28464      1388  TIP3      H2             13.0433847333      -11.5182066085       33.4521640561  TIP3      1188            0.0000000000
     28465      1389  TIP3      OH2             4.9948605954       -9.3646026719       27.1985928066  TIP3      1189            0.0000000000
     28466      1389  TIP3      H1              4.6610843146       -9.7124766934       26.3472595115  TIP3      1189            0.0000000000
     28467      1389  TIP3      H2              5.6327452635      -10.0539764644       27.4795245952  TIP3      1189            0.0000000000
     28468      1390  TIP3      OH2             6.4335701758       -6.0942020570       29.7346834230  TIP3      1190            0.0000000000
     28469      1390  TIP3      H1              6.6087794138       -6.1932984047       28.7831575791  TIP3      1190            0.0000000000
     28470      1390  TIP3      H2              7.2395652364       -6.4643081462       30.1342314556  TIP3      1190            0.0000000000
     28471      1391  TIP3      OH2             5.1911402212      -10.8032946388       30.8090585115  TIP3      1191            0.0000000000
     28472      1391  TIP3      H1              5.4805161942      -10.6449663007       29.8896399951  TIP3      1191            0.0000000000
     28473      1391  TIP3      H2              5.6159070764      -10.0506136335       31.2880546885  TIP3      1191            0.0000000000
     28474      1392  TIP3      OH2            11.4212952955       -4.8401824791       31.3029523017  TIP3      1192            0.0000000000
     28475      1392  TIP3      H1             11.4965750076       -4.3936921450       32.1516711070  TIP3      1192            0.0000000000
     28476      1392  TIP3      H2             12.0710927953       -5.5780781820       31.4329878745  TIP3      1192            0.0000000000
     28477      1393  TIP3      OH2             6.5070918299       -6.3059478899       35.1861502668  TIP3      1193            0.0000000000
     28478      1393  TIP3      H1              5.7628742864       -5.8679705296       35.6627804505  TIP3      1193            0.0000000000
     28479      1393  TIP3      H2              6.0446692230       -6.5620250697       34.3623020683  TIP3      1193            0.0000000000
     28480      1394  TIP3      OH2            12.3784522676      -10.9830658287       23.0627847908  TIP3      1194            0.0000000000
     28481      1394  TIP3      H1             12.7480270492      -10.8575117402       23.9669187270  TIP3      1194            0.0000000000
     28482      1394  TIP3      H2             12.3851835074      -10.0779430830       22.7141530841  TIP3      1194            0.0000000000
     28483      1395  TIP3      OH2             2.9315820166       -9.6113350824       34.2147058948  TIP3      1195            0.0000000000
     28484      1395  TIP3      H1              3.3829818472       -9.1484456057       34.9240533920  TIP3      1195            0.0000000000
     28485      1395  TIP3      H2              2.4798821201      -10.3092796136       34.7263187086  TIP3      1195            0.0000000000
     28486      1396  TIP3      OH2             9.8874670162       -4.0388988808       25.5733950667  TIP3      1196            0.0000000000
     28487      1396  TIP3      H1             10.5468368257       -3.8050307389       26.2366703960  TIP3      1196            0.0000000000
     28488      1396  TIP3      H2              9.3157553185       -3.2559784496       25.5256226694  TIP3      1196            0.0000000000
     28489      1397  TIP3      OH2             4.7002942048       -4.5854945823       36.2345600589  TIP3      1197            0.0000000000
     28490      1397  TIP3      H1              4.5911692079       -4.0802419266       35.4027393068  TIP3      1197            0.0000000000
     28491      1397  TIP3      H2              3.7679848208       -4.7235504178       36.4745055812  TIP3      1197            0.0000000000
     28492      1398  TIP3      OH2             3.9248047856      -10.4476302848       24.8226061998  TIP3      1198            0.0000000000
     28493      1398  TIP3      H1              3.5450038307       -9.6585541405       24.3808983262  TIP3      1198            0.0000000000
     28494      1398  TIP3      H2              3.5934342635      -11.1476143712       24.2470098095  TIP3      1198            0.0000000000
     28495      1399  TIP3      OH2            17.3284002346       -5.0008795494       21.3227378338  TIP3      1199            0.0000000000
     28496      1399  TIP3      H1             17.4283272309       -4.0476496971       21.4288157126  TIP3      1199            0.0000000000
     28497      1399  TIP3      H2             18.2081185282       -5.3705128828       21.4968557812  TIP3      1199            0.0000000000
     28498      1400  TIP3      OH2             0.2464843868       -7.9360129454       33.5582808740  TIP3      1200            0.0000000000
     28499      1400  TIP3      H1             -0.2690142709       -8.1713161839       32.7783227203  TIP3      1200            0.0000000000
     28500      1400  TIP3      H2              0.8616670012       -8.6941975123       33.5528142440  TIP3      1200            0.0000000000
     28501      1401  TIP3      OH2            -0.1807931178       -5.2442292181       30.4651046646  TIP3      1201            0.0000000000
     28502      1401  TIP3      H1              0.7807558158       -5.3333322665       30.5304409796  TIP3      1201            0.0000000000
     28503      1401  TIP3      H2             -0.3127035562       -4.3312962041       30.7670756042  TIP3      1201            0.0000000000
     28504      1402  TIP3      OH2            18.0071904541       -4.5983890226       36.0549053060  TIP3      1202            0.0000000000
     28505      1402  TIP3      H1             17.9140456094       -5.5364516734       35.8502647376  TIP3      1202            0.0000000000
     28506      1402  TIP3      H2             17.1012921996       -4.4237589804       36.4100614710  TIP3      1202            0.0000000000
     28507      1403  TIP3      OH2             8.8714022520       -5.0084428728       35.1095810795  TIP3      1203            0.0000000000
     28508      1403  TIP3      H1              8.9018138873       -4.3472967485       35.8084105109  TIP3      1203            0.0000000000
     28509      1403  TIP3      H2              7.9722882582       -5.3967435752       35.1809493502  TIP3      1203            0.0000000000
     28510      1404  TIP3      OH2             9.1366123923       -1.3399039645       24.5284448447  TIP3      1204            0.0000000000
     28511      1404  TIP3      H1              9.4080496485       -1.6139053187       23.6318206608  TIP3      1204            0.0000000000
     28512      1404  TIP3      H2              9.4474894444       -0.4203544993       24.5513035729  TIP3      1204            0.0000000000
     28513      1405  TIP3      OH2             3.1158126385       -2.3803217633       26.7149920743  TIP3      1205            0.0000000000
     28514      1405  TIP3      H1              3.2126076225       -2.8207109184       27.5873950881  TIP3      1205            0.0000000000
     28515      1405  TIP3      H2              2.3378166500       -2.8226603918       26.3205512370  TIP3      1205            0.0000000000
     28516      1406  TIP3      OH2            15.1437184166      -13.2292128716       36.3210626776  TIP3      1206            0.0000000000
     28517      1406  TIP3      H1             14.4323491163      -12.8088688598       35.7905986054  TIP3      1206            0.0000000000
     28518      1406  TIP3      H2             15.0363381050      -14.1571505928       36.0315804588  TIP3      1206            0.0000000000
     28519      1407  TIP3      OH2             2.3153430471       -6.4685527047       34.4955508178  TIP3      1207            0.0000000000
     28520      1407  TIP3      H1              2.4607394504       -6.9483148845       35.3405386921  TIP3      1207            0.0000000000
     28521      1407  TIP3      H2              1.5415874903       -6.9620624697       34.1504043288  TIP3      1207            0.0000000000
     28522      1408  TIP3      OH2            10.1207485832      -18.5786835854       33.6202083031  TIP3      1208            0.0000000000
     28523      1408  TIP3      H1             10.5413806373      -18.9817797585       34.4154577742  TIP3      1208            0.0000000000
     28524      1408  TIP3      H2              9.1672723059      -18.6060858555       33.8520757427  TIP3      1208            0.0000000000
     28525      1409  TIP3      OH2            12.5516822253      -14.3065106843       34.9790254311  TIP3      1209            0.0000000000
     28526      1409  TIP3      H1             12.0744193526      -14.7234327747       35.7441891779  TIP3      1209            0.0000000000
     28527      1409  TIP3      H2             12.0910272248      -13.4519072878       34.9213695144  TIP3      1209            0.0000000000
     28528      1410  TIP3      OH2             5.1652911272      -13.3849568664       31.6631416747  TIP3      1210            0.0000000000
     28529      1410  TIP3      H1              4.6997335323      -13.1123469849       32.4730175252  TIP3      1210            0.0000000000
     28530      1410  TIP3      H2              5.2312175400      -12.4990369532       31.2374190916  TIP3      1210            0.0000000000
     28531      1411  TIP3      OH2             5.2494115425      -13.0029437225       26.7677772758  TIP3      1211            0.0000000000
     28532      1411  TIP3      H1              4.3121780516      -13.0416642083       26.5043608713  TIP3      1211            0.0000000000
     28533      1411  TIP3      H2              5.6580004778      -12.9623245633       25.8672514900  TIP3      1211            0.0000000000
     28534      1412  TIP3      OH2            11.1481055665      -12.6034040561       25.7414142897  TIP3      1212            0.0000000000
     28535      1412  TIP3      H1             10.6848830736      -11.7993207391       25.4155466227  TIP3      1212            0.0000000000
     28536      1412  TIP3      H2             11.5275116371      -12.9681321545       24.9095115945  TIP3      1212            0.0000000000
     28537      1413  TIP3      OH2             9.9225496633      -12.4125228212       36.7874457194  TIP3      1213            0.0000000000
     28538      1413  TIP3      H1              9.3126579638      -12.9979347174       37.2733113236  TIP3      1213            0.0000000000
     28539      1413  TIP3      H2             10.4401144628      -12.0652508775       37.5270138768  TIP3      1213            0.0000000000
     28540      1414  TIP3      OH2            11.5854493059      -13.2640558450       28.6021538030  TIP3      1214            0.0000000000
     28541      1414  TIP3      H1             11.6029132474      -12.5462775118       27.9384226615  TIP3      1214            0.0000000000
     28542      1414  TIP3      H2             11.7099990493      -14.0382111117       27.9982282700  TIP3      1214            0.0000000000
     28543      1415  TIP3      OH2             2.4175671346      -13.0819696468       33.1432170280  TIP3      1215            0.0000000000
     28544      1415  TIP3      H1              3.2207292861      -12.6809599479       33.5265183963  TIP3      1215            0.0000000000
     28545      1415  TIP3      H2              2.4216697628      -13.9713924369       33.5496214694  TIP3      1215            0.0000000000
     28546      1416  TIP3      OH2            10.7809625418      -11.7084034449       32.8741929695  TIP3      1216            0.0000000000
     28547      1416  TIP3      H1             11.3602941902      -12.3856807145       32.4673132254  TIP3      1216            0.0000000000
     28548      1416  TIP3      H2             10.1930520741      -12.2552968316       33.4527118402  TIP3      1216            0.0000000000
     28549      1417  TIP3      OH2             8.0737226793      -15.6883274296       27.6054176993  TIP3      1217            0.0000000000
     28550      1417  TIP3      H1              7.1124805950      -15.8650894694       27.5909264264  TIP3      1217            0.0000000000
     28551      1417  TIP3      H2              8.1977773228      -15.3431150316       28.4989349760  TIP3      1217            0.0000000000
     28552      1418  TIP3      OH2             2.4450947123      -13.8863094903       26.5373465837  TIP3      1218            0.0000000000
     28553      1418  TIP3      H1              1.5512021562      -13.6865764199       26.1524954052  TIP3      1218            0.0000000000
     28554      1418  TIP3      H2              2.7563168275      -14.4987709366       25.8603006502  TIP3      1218            0.0000000000
     28555      1419  TIP3      OH2             6.0496591536      -13.3466933142       24.2038787266  TIP3      1219            0.0000000000
     28556      1419  TIP3      H1              6.8858380458      -13.8152587296       24.4279123341  TIP3      1219            0.0000000000
     28557      1419  TIP3      H2              6.2230529103      -13.1673480936       23.2668300848  TIP3      1219            0.0000000000
     28558      1420  TIP3      OH2            12.3077434629      -16.3462764224       30.7410394689  TIP3      1220            0.0000000000
     28559      1420  TIP3      H1             11.6506343514      -16.3034413727       31.4774116081  TIP3      1220            0.0000000000
     28560      1420  TIP3      H2             11.7838420065      -16.8296113540       30.0748302485  TIP3      1220            0.0000000000
     28561      1421  TIP3      OH2             4.6806418021      -12.5934517555       21.5065596693  TIP3      1221            0.0000000000
     28562      1421  TIP3      H1              4.3225267557      -13.3850662389       21.9140548106  TIP3      1221            0.0000000000
     28563      1421  TIP3      H2              5.6193468961      -12.8786002182       21.3885461589  TIP3      1221            0.0000000000
     28564      1422  TIP3      OH2            15.2233693378       -0.4614627759       37.4580518641  TIP3      1222            0.0000000000
     28565      1422  TIP3      H1             15.4118600592       -0.0133193318       36.6187290545  TIP3      1222            0.0000000000
     28566      1422  TIP3      H2             16.1130500188       -0.3919578264       37.8653513583  TIP3      1222            0.0000000000
     28567      1423  TIP3      OH2             2.7726393563       -8.0238817697       36.8098780647  TIP3      1223            0.0000000000
     28568      1423  TIP3      H1              3.6668116042       -7.9467032794       37.1957586886  TIP3      1223            0.0000000000
     28569      1423  TIP3      H2              2.2886307385       -8.3944611905       37.5721216520  TIP3      1223            0.0000000000
     28570      1424  TIP3      OH2             8.7773488985      -12.8003079238       29.5813316549  TIP3      1224            0.0000000000
     28571      1424  TIP3      H1              9.6570985809      -12.9259573965       29.1844381852  TIP3      1224            0.0000000000
     28572      1424  TIP3      H2              8.6967733857      -13.5833141919       30.1426013750  TIP3      1224            0.0000000000
     28573      1425  TIP3      OH2             7.6728950772      -14.5160628683       32.0555240707  TIP3      1225            0.0000000000
     28574      1425  TIP3      H1              6.8892795567      -13.9613632049       31.8532879777  TIP3      1225            0.0000000000
     28575      1425  TIP3      H2              8.2087296629      -13.9292538607       32.6111700789  TIP3      1225            0.0000000000
     28576      1426  TIP3      OH2             8.1851242100       -8.4886020962       23.9296844434  TIP3      1226            0.0000000000
     28577      1426  TIP3      H1              7.5493972261       -9.1087776362       23.5080745624  TIP3      1226            0.0000000000
     28578      1426  TIP3      H2              7.6909842838       -8.2069670267       24.7332306201  TIP3      1226            0.0000000000
     28579      1427  TIP3      OH2            15.7058334730       -9.0303150788       32.4964874805  TIP3      1227            0.0000000000
     28580      1427  TIP3      H1             16.0860674470       -8.3256433386       31.9201347782  TIP3      1227            0.0000000000
     28581      1427  TIP3      H2             14.7673828261       -8.8351049877       32.3061475985  TIP3      1227            0.0000000000
     28582      1428  TIP3      OH2             9.4996528003       -7.8514006970       34.7728488955  TIP3      1228            0.0000000000
     28583      1428  TIP3      H1              9.2807878595       -8.5422592501       35.4035386463  TIP3      1228            0.0000000000
     28584      1428  TIP3      H2              9.2461350434       -7.0229817647       35.1983284166  TIP3      1228            0.0000000000
     28585      1429  TIP3      OH2            12.4237124750      -13.7299899672       23.6063840311  TIP3      1229            0.0000000000
     28586      1429  TIP3      H1             13.2172953112      -13.2395278971       23.8524567829  TIP3      1229            0.0000000000
     28587      1429  TIP3      H2             12.1780233510      -13.2783587009       22.7811685482  TIP3      1229            0.0000000000
     28588      1430  TIP3      OH2             3.1931900274       -8.6094865697       29.2704125780  TIP3      1230            0.0000000000
     28589      1430  TIP3      H1              3.8829260875       -8.7571645161       28.5852013537  TIP3      1230            0.0000000000
     28590      1430  TIP3      H2              3.3371622338       -9.3349430667       29.9009109928  TIP3      1230            0.0000000000
     28591      1431  TIP3      OH2            10.2571810399       -7.0447285149       23.0251678767  TIP3      1231            0.0000000000
     28592      1431  TIP3      H1              9.8783107764       -6.1853049451       22.7389140822  TIP3      1231            0.0000000000
     28593      1431  TIP3      H2              9.4395677891       -7.5248047389       23.2718875763  TIP3      1231            0.0000000000
     28594      1432  TIP3      OH2             0.2450025264      -10.5256840478       34.8269279487  TIP3      1232            0.0000000000
     28595      1432  TIP3      H1              0.0481636873      -11.1292223017       35.5682065299  TIP3      1232            0.0000000000
     28596      1432  TIP3      H2             -0.2407668540      -10.9328943454       34.0822613498  TIP3      1232            0.0000000000
     28597      1433  TIP3      OH2             6.9839215866      -12.2543299402       35.8171550649  TIP3      1233            0.0000000000
     28598      1433  TIP3      H1              6.6862714617      -11.3360533312       35.7368061815  TIP3      1233            0.0000000000
     28599      1433  TIP3      H2              7.6661708480      -12.0426968422       36.4898853730  TIP3      1233            0.0000000000
     28600      1434  TIP3      OH2            12.2470909850       -5.6176225374       35.1761143298  TIP3      1234            0.0000000000
     28601      1434  TIP3      H1             11.7411188602       -5.2814720712       34.4154527424  TIP3      1234            0.0000000000
     28602      1434  TIP3      H2             11.9159464929       -5.0564605999       35.9052546127  TIP3      1234            0.0000000000
     28603      1435  TIP3      OH2            17.8130062081       -7.5760989462       36.2816906626  TIP3      1235            0.0000000000
     28604      1435  TIP3      H1             16.8952166848       -7.3416040076       36.0038510997  TIP3      1235            0.0000000000
     28605      1435  TIP3      H2             18.2742334060       -7.6407224392       35.4007385535  TIP3      1235            0.0000000000
     28606      1436  TIP3      OH2            12.9290463069       -9.9620611280       30.3604357320  TIP3      1236            0.0000000000
     28607      1436  TIP3      H1             11.9656994988      -10.0246494307       30.1732497412  TIP3      1236            0.0000000000
     28608      1436  TIP3      H2             13.2868908199      -10.7355527562       29.9004720973  TIP3      1236            0.0000000000
     28609      1437  TIP3      OH2             5.7490886340       -5.3571257819       26.9654059498  TIP3      1237            0.0000000000
     28610      1437  TIP3      H1              6.2686576196       -4.5850680142       26.6898206105  TIP3      1237            0.0000000000
     28611      1437  TIP3      H2              4.8615267405       -5.1068356356       26.6656002727  TIP3      1237            0.0000000000
     28612      1438  TIP3      OH2             7.0437918338       -7.6874639015       26.3103367043  TIP3      1238            0.0000000000
     28613      1438  TIP3      H1              6.5581365245       -6.8510690775       26.4571395382  TIP3      1238            0.0000000000
     28614      1438  TIP3      H2              6.4350566929       -8.3435678226       26.6848811954  TIP3      1238            0.0000000000
     28615      1439  TIP3      OH2             7.6778250153       -3.4157516103       32.9470910773  TIP3      1239            0.0000000000
     28616      1439  TIP3      H1              8.3308993493       -2.7833172257       32.5763859202  TIP3      1239            0.0000000000
     28617      1439  TIP3      H2              8.2287067237       -3.8667019590       33.6203696688  TIP3      1239            0.0000000000
     28618      1440  TIP3      OH2             5.7078343395       -2.7251967686       25.7700254326  TIP3      1240            0.0000000000
     28619      1440  TIP3      H1              4.8077572686       -2.5167699303       26.0835078321  TIP3      1240            0.0000000000
     28620      1440  TIP3      H2              6.1379803701       -1.8840686174       26.0317702014  TIP3      1240            0.0000000000
     28621      1441  TIP3      OH2            10.7736735452       -7.6121287908       32.4138816844  TIP3      1241            0.0000000000
     28622      1441  TIP3      H1             10.4058139873       -7.7953155577       33.3106760219  TIP3      1241            0.0000000000
     28623      1441  TIP3      H2             11.7420491410       -7.6382772481       32.5566248952  TIP3      1241            0.0000000000
     28624      1442  TIP3      OH2            13.4573150506       -5.9972237423       22.1900226947  TIP3      1242            0.0000000000
     28625      1442  TIP3      H1             13.4009709954       -6.7921160096       22.7413147881  TIP3      1242            0.0000000000
     28626      1442  TIP3      H2             13.0313441479       -6.2666644748       21.3623442703  TIP3      1242            0.0000000000
     28627      1443  TIP3      OH2            14.0506742897       -3.2583912779       34.9042042807  TIP3      1243            0.0000000000
     28628      1443  TIP3      H1             13.1738456913       -3.6769216238       34.8430719762  TIP3      1243            0.0000000000
     28629      1443  TIP3      H2             14.0435995895       -2.6118430027       34.1708386855  TIP3      1243            0.0000000000
     28630      1444  TIP3      OH2            18.0261787158       -2.0669338385       21.7083828791  TIP3      1244            0.0000000000
     28631      1444  TIP3      H1             18.7274169105       -1.6574665763       21.1740680535  TIP3      1244            0.0000000000
     28632      1444  TIP3      H2             17.4088373852       -1.3300158937       21.8366996202  TIP3      1244            0.0000000000
     28633      1445  TIP3      OH2             2.2602651808      -15.5996941102       34.2861431688  TIP3      1245            0.0000000000
     28634      1445  TIP3      H1              1.5896189018      -15.2110166184       34.8783020898  TIP3      1245            0.0000000000
     28635      1445  TIP3      H2              2.4786977645      -16.4096519928       34.7852682207  TIP3      1245            0.0000000000
     28636      1446  TIP3      OH2            14.3398887176       -8.3199836420       23.5706435812  TIP3      1246            0.0000000000
     28637      1446  TIP3      H1             14.3594036608       -9.0216696529       24.2406256232  TIP3      1246            0.0000000000
     28638      1446  TIP3      H2             15.2724660953       -8.0064091427       23.5518202993  TIP3      1246            0.0000000000
     28639      1447  TIP3      OH2             1.6736631688       -3.8675839085       32.6216567627  TIP3      1247            0.0000000000
     28640      1447  TIP3      H1              2.2790455025       -4.6190809411       32.6968555292  TIP3      1247            0.0000000000
     28641      1447  TIP3      H2              1.8072214307       -3.4651214874       33.4899009753  TIP3      1247            0.0000000000
     28642      1448  TIP3      OH2             2.9644608272       -8.6098513147       23.0213635425  TIP3      1248            0.0000000000
     28643      1448  TIP3      H1              2.1979922634       -8.1301603793       23.4188868374  TIP3      1248            0.0000000000
     28644      1448  TIP3      H2              3.4156349600       -7.8857081985       22.5701971801  TIP3      1248            0.0000000000
     28645      1449  TIP3      OH2            10.9307028388      -15.9757573186       33.0642499978  TIP3      1249            0.0000000000
     28646      1449  TIP3      H1             11.5818560085      -15.6808970837       33.7227678219  TIP3      1249            0.0000000000
     28647      1449  TIP3      H2             10.5356022434      -16.7630717469       33.4873099861  TIP3      1249            0.0000000000
     28648      1450  TIP3      OH2             9.0160721999       -4.6657685252       22.8720627762  TIP3      1250            0.0000000000
     28649      1450  TIP3      H1              8.5288592055       -4.0884240561       23.4720891675  TIP3      1250            0.0000000000
     28650      1450  TIP3      H2              9.8802707870       -4.2406594587       22.8228621132  TIP3      1250            0.0000000000
     28651      1451  TIP3      OH2             8.4031065260      -14.2882789057       25.2201759899  TIP3      1251            0.0000000000
     28652      1451  TIP3      H1              9.3351536691      -14.1061141794       25.0065777776  TIP3      1251            0.0000000000
     28653      1451  TIP3      H2              8.4517225897      -14.8210618547       26.0345397761  TIP3      1251            0.0000000000
     28654      1452  TIP3      OH2             9.5818210949      -13.4899098517       34.3896686598  TIP3      1252            0.0000000000
     28655      1452  TIP3      H1              9.6232973186      -13.0666913846       35.2862323861  TIP3      1252            0.0000000000
     28656      1452  TIP3      H2              9.8462865661      -14.4009113262       34.5647939045  TIP3      1252            0.0000000000
     28657      1453  TIP3      OH2             9.5141944387      -17.6748717937       26.2676008998  TIP3      1253            0.0000000000
     28658      1453  TIP3      H1              9.1323199818      -16.7868154141       26.4393125667  TIP3      1253            0.0000000000
     28659      1453  TIP3      H2             10.2254818784      -17.4934972199       25.6312145615  TIP3      1253            0.0000000000
     28660      1454  TIP3      OH2             6.3090945375       -2.9790350622       23.1017918297  TIP3      1254            0.0000000000
     28661      1454  TIP3      H1              6.7045150497       -2.1467607537       22.7810465565  TIP3      1254            0.0000000000
     28662      1454  TIP3      H2              5.9975166599       -2.7641532484       24.0096313744  TIP3      1254            0.0000000000
     28663      1455  TIP3      OH2            15.0159979433      -15.7396144713       35.2308977455  TIP3      1255            0.0000000000
     28664      1455  TIP3      H1             14.1579658462      -15.3965948150       34.9009733941  TIP3      1255            0.0000000000
     28665      1455  TIP3      H2             15.6066051184      -15.6506320735       34.4536903697  TIP3      1255            0.0000000000
     28666      1456  TIP3      OH2            14.0436664325      -12.1445658852       29.0869986994  TIP3      1256            0.0000000000
     28667      1456  TIP3      H1             13.2596094506      -12.7117559288       29.1947179296  TIP3      1256            0.0000000000
     28668      1456  TIP3      H2             14.7319999165      -12.6274872876       29.5955514395  TIP3      1256            0.0000000000
     28669      1457  TIP3      OH2            14.9920437656       -2.2595481365       30.9290979710  TIP3      1257            0.0000000000
     28670      1457  TIP3      H1             15.0137575513       -2.6820573351       30.0629299245  TIP3      1257            0.0000000000
     28671      1457  TIP3      H2             15.9180904359       -2.3714829100       31.2015070419  TIP3      1257            0.0000000000
     28672      1458  TIP3      OH2             1.3665510505       -5.1390120116       25.5643809422  TIP3      1258            0.0000000000
     28673      1458  TIP3      H1              0.5837635013       -4.6757333791       25.8802101113  TIP3      1258            0.0000000000
     28674      1458  TIP3      H2              1.6341289704       -4.5084676271       24.8679828278  TIP3      1258            0.0000000000
     28675      1459  TIP3      OH2             0.5546190053       -1.9228757030       37.1558263092  TIP3      1259            0.0000000000
     28676      1459  TIP3      H1              1.3007928838       -1.9331679434       37.8001189019  TIP3      1259            0.0000000000
     28677      1459  TIP3      H2              0.3263907443       -2.8575518151       37.1688750895  TIP3      1259            0.0000000000
     28678      1460  TIP3      OH2             5.4445583249       -2.9805708997       38.5013601284  TIP3      1260            0.0000000000
     28679      1460  TIP3      H1              6.3216391223       -3.2794795545       38.8231213799  TIP3      1260            0.0000000000
     28680      1460  TIP3      H2              5.4002459571       -3.4204956261       37.6380050646  TIP3      1260            0.0000000000
     28681      1461  TIP3      OH2            11.7136146724       -4.3342225759       37.4241777208  TIP3      1261            0.0000000000
     28682      1461  TIP3      H1             11.2772774842       -5.1474203979       37.7748168667  TIP3      1261            0.0000000000
     28683      1461  TIP3      H2             12.5018227625       -4.3282375860       38.0023656176  TIP3      1261            0.0000000000
     28684      1462  TIP3      OH2             0.3800048238       -8.2796531770       38.1614545640  TIP3      1262            0.0000000000
     28685      1462  TIP3      H1              0.4095490605       -9.2489641820       38.3283072778  TIP3      1262            0.0000000000
     28686      1462  TIP3      H2              0.3931221225       -8.2949148328       37.1845288848  TIP3      1262            0.0000000000
     28687      1463  TIP3      OH2             7.4905214886       -7.3389833739       37.4010041268  TIP3      1263            0.0000000000
     28688      1463  TIP3      H1              7.2728720646       -7.1777086974       36.4530194232  TIP3      1263            0.0000000000
     28689      1463  TIP3      H2              7.7121446664       -8.3015629177       37.4135672609  TIP3      1263            0.0000000000
     28690      1464  TIP3      OH2            12.8217372349       -8.2659035045       35.3032844188  TIP3      1264            0.0000000000
     28691      1464  TIP3      H1             13.5307338042       -7.6131390340       35.1225424396  TIP3      1264            0.0000000000
     28692      1464  TIP3      H2             12.1239788040       -7.6157725515       35.4967106271  TIP3      1264            0.0000000000
     28693      1465  TIP3      OH2             1.7120197862      -10.8807809511       37.7344335511  TIP3      1265            0.0000000000
     28694      1465  TIP3      H1              1.7111845608      -11.8470491827       37.7346499527  TIP3      1265            0.0000000000
     28695      1465  TIP3      H2              2.2782063218      -10.6484095283       38.4971200131  TIP3      1265            0.0000000000
     28696      1466  TIP3      OH2             6.2854428897       -9.9559565820       22.6880997186  TIP3      1266            0.0000000000
     28697      1466  TIP3      H1              5.5144915096      -10.2992744332       23.1627610760  TIP3      1266            0.0000000000
     28698      1466  TIP3      H2              6.3141491094      -10.4964057923       21.8887032424  TIP3      1266            0.0000000000
     28699      1467  TIP3      OH2             4.7895248147      -11.9077338347       34.0309483752  TIP3      1267            0.0000000000
     28700      1467  TIP3      H1              4.9287854563      -12.0368033363       34.9856141387  TIP3      1267            0.0000000000
     28701      1467  TIP3      H2              5.6337839231      -11.4865471251       33.7611885571  TIP3      1267            0.0000000000
     28702      1468  TIP3      OH2            10.8019299397       -8.9850580718       38.1695176840  TIP3      1268            0.0000000000
     28703      1468  TIP3      H1             11.3776871064       -9.7628958901       38.1330704698  TIP3      1268            0.0000000000
     28704      1468  TIP3      H2              9.9245233318       -9.3880329570       37.9634571249  TIP3      1268            0.0000000000
     28705      1469  TIP3      OH2             5.8333535911      -14.6028250149       35.3901621508  TIP3      1269            0.0000000000
     28706      1469  TIP3      H1              6.2032886868      -15.2627044321       34.7686341069  TIP3      1269            0.0000000000
     28707      1469  TIP3      H2              6.4174105724      -13.8065395895       35.2969482527  TIP3      1269            0.0000000000
     28708      1470  TIP3      OH2             6.5169920229      -16.4614471616       33.4934540114  TIP3      1270            0.0000000000
     28709      1470  TIP3      H1              6.9255932933      -15.8312900023       32.8589678030  TIP3      1270            0.0000000000
     28710      1470  TIP3      H2              5.5637558626      -16.3576047549       33.2917633972  TIP3      1270            0.0000000000
     28711      1471  TIP3      OH2             7.6205898703      -10.5954311422       33.4530301426  TIP3      1271            0.0000000000
     28712      1471  TIP3      H1              8.5116265172      -10.2518479057       33.5961395294  TIP3      1271            0.0000000000
     28713      1471  TIP3      H2              7.1746598577       -9.8483470346       33.0123807571  TIP3      1271            0.0000000000
     28714      1472  TIP3      OH2            12.6732691453      -13.5602979402       38.4056779998  TIP3      1272            0.0000000000
     28715      1472  TIP3      H1             13.4068559269      -14.1832587860       38.3615229588  TIP3      1272            0.0000000000
     28716      1472  TIP3      H2             13.1029851236      -12.7377606668       38.6754942695  TIP3      1272            0.0000000000
     28717      1473  TIP3      OH2            13.7916012999      -10.0663090649       36.9843284463  TIP3      1273            0.0000000000
     28718      1473  TIP3      H1             13.2967259538       -9.5435573707       36.3091132554  TIP3      1273            0.0000000000
     28719      1473  TIP3      H2             14.6920993358       -9.9928613366       36.6168163395  TIP3      1273            0.0000000000
     28720      1474  TIP3      OH2             4.4663903204      -13.7359123423       37.5176924925  TIP3      1274            0.0000000000
     28721      1474  TIP3      H1              3.6578514826      -14.1593830584       37.1795307264  TIP3      1274            0.0000000000
     28722      1474  TIP3      H2              5.0992989361      -14.0083724631       36.8032658984  TIP3      1274            0.0000000000
     28723      1475  TIP3      OH2             7.3818892744      -18.9495798972       33.6210054192  TIP3      1275            0.0000000000
     28724      1475  TIP3      H1              7.1100760911      -18.0052755742       33.6152583062  TIP3      1275            0.0000000000
     28725      1475  TIP3      H2              6.5783376263      -19.3788129650       33.3028508017  TIP3      1275            0.0000000000
     28726      1476  TIP3      OH2             8.3336091939      -14.5459436419       37.5898665477  TIP3      1276            0.0000000000
     28727      1476  TIP3      H1              7.7477868398      -14.7412938476       38.3421222332  TIP3      1276            0.0000000000
     28728      1476  TIP3      H2              7.7310205282      -14.6052700970       36.8374398159  TIP3      1276            0.0000000000
     28729      1477  TIP3      OH2            11.2029573923      -15.6827274637       36.7727105614  TIP3      1277            0.0000000000
     28730      1477  TIP3      H1             10.4909679609      -15.2800634285       37.3132825734  TIP3      1277            0.0000000000
     28731      1477  TIP3      H2             11.8102912903      -16.0225761391       37.4627835037  TIP3      1277            0.0000000000
     28732      1478  TIP3      OH2            13.0278336594      -16.7474237659       38.5439336625  TIP3      1278            0.0000000000
     28733      1478  TIP3      H1             12.8357760131      -17.7053345747       38.4700617010  TIP3      1278            0.0000000000
     28734      1478  TIP3      H2             12.7142995994      -16.5475925124       39.4508571887  TIP3      1278            0.0000000000
     28735      1479  TIP3      OH2             2.2610781337      -15.4809706747       37.6171653407  TIP3      1279            0.0000000000
     28736      1479  TIP3      H1              2.1653843892      -16.3904498229       37.2652866012  TIP3      1279            0.0000000000
     28737      1479  TIP3      H2              2.2074993324      -15.6695870667       38.5850888461  TIP3      1279            0.0000000000
     28738      1480  TIP3      OH2             7.1568245402      -19.2492704351       36.4442321076  TIP3      1280            0.0000000000
     28739      1480  TIP3      H1              7.8092020923      -19.9604613646       36.6038312515  TIP3      1280            0.0000000000
     28740      1480  TIP3      H2              7.1808295203      -19.2763747137       35.4664943183  TIP3      1280            0.0000000000
     28741      1481  TIP3      OH2             7.4532272795      -18.0802840798       38.8926510580  TIP3      1281            0.0000000000
     28742      1481  TIP3      H1              7.2817927658      -18.5036336616       38.0139862553  TIP3      1281            0.0000000000
     28743      1481  TIP3      H2              6.9023879338      -17.2750651886       38.7971524184  TIP3      1281            0.0000000000
     28744      1482  TIP3      OH2             7.1873538135       -0.5968250504       21.8020550155  TIP3      1282            0.0000000000
     28745      1482  TIP3      H1              8.1234934210       -0.8420240260       21.6741300767  TIP3      1282            0.0000000000
     28746      1482  TIP3      H2              7.0443927179       -0.1222389585       20.9737190983  TIP3      1282            0.0000000000
     28747      1483  TIP3      OH2            -0.8039350689       -1.2743938008       26.6587020493  TIP3      1283            0.0000000000
     28748      1483  TIP3      H1             -1.5016684082       -1.6330323377       26.0761083687  TIP3      1283            0.0000000000
     28749      1483  TIP3      H2             -0.5703958738       -2.0065909980       27.2571245095  TIP3      1283            0.0000000000
     28750      1484  TIP3      OH2             0.4738855873       -3.0492095434       28.2666158257  TIP3      1284            0.0000000000
     28751      1484  TIP3      H1             -0.0101111738       -3.7208001369       28.7656471313  TIP3      1284            0.0000000000
     28752      1484  TIP3      H2              1.0605949029       -2.6946257844       28.9654909434  TIP3      1284            0.0000000000
     28753      1485  TIP3      OH2            18.1075565325       -1.7708171330       30.7377990408  TIP3      1285            0.0000000000
     28754      1485  TIP3      H1             18.2337456916       -2.1596050289       31.6191208807  TIP3      1285            0.0000000000
     28755      1485  TIP3      H2             19.0208190834       -1.4821260826       30.5415201972  TIP3      1285            0.0000000000
     28756      1486  TIP3      OH2            17.4891511541       -2.3685715599       34.0538823829  TIP3      1286            0.0000000000
     28757      1486  TIP3      H1             17.1905228398       -3.2032049939       33.6273950042  TIP3      1286            0.0000000000
     28758      1486  TIP3      H2             17.7932574538       -2.7228173345       34.9072473387  TIP3      1286            0.0000000000
     28759      1487  TIP3      OH2            15.9154955809       -6.7698658023       38.7121931850  TIP3      1287            0.0000000000
     28760      1487  TIP3      H1             15.0274654172       -6.8009243957       39.1203719263  TIP3      1287            0.0000000000
     28761      1487  TIP3      H2             16.3225421094       -6.0301652009       39.2119618000  TIP3      1287            0.0000000000
     28762      1488  TIP3      OH2            17.1582355884       -8.5838431194       23.7315152517  TIP3      1288            0.0000000000
     28763      1488  TIP3      H1             17.9343196665       -8.0176914632       23.9348452620  TIP3      1288            0.0000000000
     28764      1488  TIP3      H2             17.1635590378       -9.1629496876       24.5154086859  TIP3      1288            0.0000000000
     28765      1489  TIP3      OH2            17.5263637683      -10.2869488918       25.9302941688  TIP3      1289            0.0000000000
     28766      1489  TIP3      H1             16.7134808738      -10.6356675150       26.3702175881  TIP3      1289            0.0000000000
     28767      1489  TIP3      H2             18.1826799933      -10.2938634227       26.6635686607  TIP3      1289            0.0000000000
     28768      1490  TIP3      OH2            16.8295586899       -7.3553514737       30.8140291024  TIP3      1290            0.0000000000
     28769      1490  TIP3      H1             17.4438399340       -8.0383441692       30.4927114216  TIP3      1290            0.0000000000
     28770      1490  TIP3      H2             17.4500475973       -6.6245048316       30.8993648595  TIP3      1290            0.0000000000
     28771      1491  TIP3      OH2            16.0196728557       -4.5857132508       33.0387762031  TIP3      1291            0.0000000000
     28772      1491  TIP3      H1             15.2352215034       -4.3553403737       33.5595260639  TIP3      1291            0.0000000000
     28773      1491  TIP3      H2             15.7237536576       -5.4466365481       32.6724918250  TIP3      1291            0.0000000000
     28774      1492  TIP3      OH2            15.4260642507      -11.6087437893       26.8866545190  TIP3      1292            0.0000000000
     28775      1492  TIP3      H1             14.9592510025      -12.3815442857       26.5054111924  TIP3      1292            0.0000000000
     28776      1492  TIP3      H2             15.0903085092      -11.6593214165       27.8108264903  TIP3      1292            0.0000000000
     28777      1493  TIP3      OH2             0.2307732141       -9.6249827207       30.7744438003  TIP3      1293            0.0000000000
     28778      1493  TIP3      H1              0.1910436656      -10.0320603067       29.8798497137  TIP3      1293            0.0000000000
     28779      1493  TIP3      H2              1.1113516892       -9.9569749097       31.0819944428  TIP3      1293            0.0000000000
     28780      1494  TIP3      OH2            16.5114529924       -9.9592932933       36.2409401288  TIP3      1294            0.0000000000
     28781      1494  TIP3      H1             16.9744302201      -10.8148984478       36.4099284678  TIP3      1294            0.0000000000
     28782      1494  TIP3      H2             17.2281507846       -9.2962004067       36.1476653394  TIP3      1294            0.0000000000
     28783      1495  TIP3      OH2            17.5218142428      -12.3610931476       36.8795544410  TIP3      1295            0.0000000000
     28784      1495  TIP3      H1             16.6004162625      -12.6117243620       36.6015828737  TIP3      1295            0.0000000000
     28785      1495  TIP3      H2             18.0103271737      -13.2169799216       36.8467895687  TIP3      1295            0.0000000000
     28786      1496  TIP3      OH2            14.9397232177      -13.9011326572       25.3937207871  TIP3      1296            0.0000000000
     28787      1496  TIP3      H1             14.8507213544      -14.7864781939       24.9952475513  TIP3      1296            0.0000000000
     28788      1496  TIP3      H2             15.5850055852      -13.4699047099       24.8228032304  TIP3      1296            0.0000000000
     28789      1497  TIP3      OH2            15.8434980665      -13.7514777051       30.3720877461  TIP3      1297            0.0000000000
     28790      1497  TIP3      H1             16.8188224951      -13.6210860188       30.4673919917  TIP3      1297            0.0000000000
     28791      1497  TIP3      H2             15.6181410972      -13.6730921977       31.3165055661  TIP3      1297            0.0000000000
     28792      1498  TIP3      OH2            15.7563206871      -12.8960192292       32.8843827676  TIP3      1298            0.0000000000
     28793      1498  TIP3      H1             14.8619070261      -12.6597642694       33.2115745827  TIP3      1298            0.0000000000
     28794      1498  TIP3      H2             16.2065510911      -12.0173187387       32.9439100486  TIP3      1298            0.0000000000
     28795      1499  TIP3      OH2             0.0802627058      -14.3444181190       36.5481031488  TIP3      1299            0.0000000000
     28796      1499  TIP3      H1              0.9413207657      -14.5716013476       36.9628994820  TIP3      1299            0.0000000000
     28797      1499  TIP3      H2             -0.4215537264      -15.1745186612       36.7006916909  TIP3      1299            0.0000000000
     28798      1500  TIP3      OH2            18.2146375880      -18.5260365027       38.5039086016  TIP3      1300            0.0000000000
     28799      1500  TIP3      H1             18.5307062381      -19.2810431050       37.9723368941  TIP3      1300            0.0000000000
     28800      1500  TIP3      H2             18.1038229737      -17.8445588063       37.8031224094  TIP3      1300            0.0000000000
     28801      1501  TIP3      OH2            -0.3160130549      -13.2489754716       30.7639926502  TIP3      1301            0.0000000000
     28802      1501  TIP3      H1              0.2455559136      -13.3744883318       29.9709425556  TIP3      1301            0.0000000000
     28803      1501  TIP3      H2              0.1816290094      -12.5380827914       31.1884419979  TIP3      1301            0.0000000000
     28804      1502  TIP3      OH2            17.4679810757      -16.5442385424       36.8543753382  TIP3      1302            0.0000000000
     28805      1502  TIP3      H1             16.7244403740      -16.1584059354       37.3879815912  TIP3      1302            0.0000000000
     28806      1502  TIP3      H2             16.9433346462      -16.9608537276       36.1422605399  TIP3      1302            0.0000000000
     28807      1503  TIP3      OH2            -0.3704910870      -18.2992431341       33.0361243467  TIP3      1303            0.0000000000
     28808      1503  TIP3      H1             -0.9483530487      -18.5607958741       33.7849738640  TIP3      1303            0.0000000000
     28809      1503  TIP3      H2             -0.8897411268      -17.6253831367       32.5668753136  TIP3      1303            0.0000000000
     28810      1504  TIP3      OH2             2.0224549621       -4.9350856794       37.0782046000  TIP3      1304            0.0000000000
     28811      1504  TIP3      H1              1.1117426727       -4.7953684871       36.7817030201  TIP3      1304            0.0000000000
     28812      1504  TIP3      H2              1.9552244302       -5.4122884218       37.9080307934  TIP3      1304            0.0000000000
     28813      1505  TIP3      OH2             4.9594805054       -3.5429750498       33.6293577946  TIP3      1305            0.0000000000
     28814      1505  TIP3      H1              4.9326830020       -2.6191729971       33.2946869884  TIP3      1305            0.0000000000
     28815      1505  TIP3      H2              5.9210219861       -3.7276987459       33.6318152218  TIP3      1305            0.0000000000
     28816      1506  TIP3      OH2             9.0490073186       -2.0614569091       36.3030199345  TIP3      1306            0.0000000000
     28817      1506  TIP3      H1              9.2732621293       -2.4213018317       37.1804261582  TIP3      1306            0.0000000000
     28818      1506  TIP3      H2              9.9361438761       -1.8128161404       35.9685768762  TIP3      1306            0.0000000000
     28819      1507  TIP3      OH2            11.4742023326       -0.8186343375       35.7699967399  TIP3      1307            0.0000000000
     28820      1507  TIP3      H1             12.1936385046       -1.3143847200       35.3684395085  TIP3      1307            0.0000000000
     28821      1507  TIP3      H2             11.8266627066       -0.5989285483       36.6687052951  TIP3      1307            0.0000000000
     28822      1508  TIP3      OH2            16.4908147086      -18.8267974604       34.8128897581  TIP3      1308            0.0000000000
     28823      1508  TIP3      H1             15.7077265760      -18.3963615905       34.4527623507  TIP3      1308            0.0000000000
     28824      1508  TIP3      H2             16.5662374812      -19.6481794613       34.2734822325  TIP3      1308            0.0000000000
     28825      1509  TIP3      OH2             2.2983647312       -0.5654014896       33.4536693279  TIP3      1309            0.0000000000
     28826      1509  TIP3      H1              1.5540927025        0.0095235886       33.1598289489  TIP3      1309            0.0000000000
     28827      1509  TIP3      H2              2.1887573675       -0.5240322845       34.4126229009  TIP3      1309            0.0000000000
     28828      1510  TIP3      OH2             4.6459587095       -1.1085212178       32.3964597681  TIP3      1310            0.0000000000
     28829      1510  TIP3      H1              3.7036045905       -0.8964661059       32.6156285053  TIP3      1310            0.0000000000
     28830      1510  TIP3      H2              4.8362774851       -0.4374174268       31.7130977504  TIP3      1310            0.0000000000
     28831      1511  TIP3      OH2             9.5376634014       -1.5096593395       31.8613456760  TIP3      1311            0.0000000000
     28832      1511  TIP3      H1              9.3576419255       -1.0396461306       31.0366934900  TIP3      1311            0.0000000000
     28833      1511  TIP3      H2              9.7530693047       -0.7579508404       32.4581067588  TIP3      1311            0.0000000000
     28834      1512  TIP3      OH2            11.5761920810       -2.7449093969       33.3549567849  TIP3      1312            0.0000000000
     28835      1512  TIP3      H1             10.9309977540       -2.4916429997       32.6642755449  TIP3      1312            0.0000000000
     28836      1512  TIP3      H2             12.2346421172       -2.0382803857       33.2470149416  TIP3      1312            0.0000000000
     28837      1513  TIP3      OH2            13.9165026164       -1.1591079272       33.0972339267  TIP3      1313            0.0000000000
     28838      1513  TIP3      H1             13.9864522747       -0.2121329465       32.8809096581  TIP3      1313            0.0000000000
     28839      1513  TIP3      H2             14.2063270943       -1.5639365063       32.2429114082  TIP3      1313            0.0000000000
     28840      1514  TIP3      OH2             1.9808889772       -2.1615546936       30.4225437266  TIP3      1314            0.0000000000
     28841      1514  TIP3      H1              1.8001412346       -2.7100865214       31.2119947638  TIP3      1314            0.0000000000
     28842      1514  TIP3      H2              2.8479273483       -2.5470129777       30.1400187743  TIP3      1314            0.0000000000
     28843      1515  TIP3      OH2             4.0512862458       -3.2648143921       29.1173040107  TIP3      1315            0.0000000000
     28844      1515  TIP3      H1              3.8925632171       -4.1899247341       29.4119518449  TIP3      1315            0.0000000000
     28845      1515  TIP3      H2              4.9580422621       -3.1308124251       29.4738199338  TIP3      1315            0.0000000000
     28846      1516  TIP3      OH2             6.4487255518       -3.2435889875       30.2859357223  TIP3      1316            0.0000000000
     28847      1516  TIP3      H1              6.6157858317       -4.2055600705       30.1925290825  TIP3      1316            0.0000000000
     28848      1516  TIP3      H2              6.6672051615       -3.1128612498       31.2267431753  TIP3      1316            0.0000000000
     28849      1517  TIP3      OH2            10.3173844117      -17.4841854829       29.2304604781  TIP3      1317            0.0000000000
     28850      1517  TIP3      H1              9.3834153200      -17.5370141985       29.4778472172  TIP3      1317            0.0000000000
     28851      1517  TIP3      H2             10.2580520147      -17.5941588771       28.2688772028  TIP3      1317            0.0000000000
     28852      1518  TIP3      OH2             6.6563522936      -18.3362172622       26.7001067551  TIP3      1318            0.0000000000
     28853      1518  TIP3      H1              7.4019077683      -18.1514226949       26.0976600497  TIP3      1318            0.0000000000
     28854      1518  TIP3      H2              7.1059941260      -18.5281283794       27.5306896254  TIP3      1318            0.0000000000
     28855      1519  TIP3      OH2             0.7285975524       -3.1226303413       23.8670754149  TIP3      1319            0.0000000000
     28856      1519  TIP3      H1              0.1150289315       -3.2563445332       23.1180921358  TIP3      1319            0.0000000000
     28857      1519  TIP3      H2              0.9620611136       -2.2032685977       23.6858330042  TIP3      1319            0.0000000000
     28858      1520  TIP3      OH2             7.1562018452      -16.6686720444       24.1838973392  TIP3      1320            0.0000000000
     28859      1520  TIP3      H1              7.9694818273      -17.1628543437       24.2907501699  TIP3      1320            0.0000000000
     28860      1520  TIP3      H2              7.4246227019      -15.9374605610       23.6127242239  TIP3      1320            0.0000000000
     28861      1521  TIP3      OH2             9.8701453543       -1.9251291986       21.9747111052  TIP3      1321            0.0000000000
     28862      1521  TIP3      H1             10.6907639779       -1.5070251797       21.6796864073  TIP3      1321            0.0000000000
     28863      1521  TIP3      H2              9.7787078031       -2.6471410612       21.3233518949  TIP3      1321            0.0000000000
     28864      1522  TIP3      OH2             2.0156819004      -18.2002818136       36.4068920704  TIP3      1322            0.0000000000
     28865      1522  TIP3      H1              1.5139547751      -19.0352218303       36.4872628842  TIP3      1322            0.0000000000
     28866      1522  TIP3      H2              2.7152186250      -18.3209005663       37.0980488093  TIP3      1322            0.0000000000
     28867      1523  TIP3      OH2             3.9383234052      -18.7603457787       38.2426700023  TIP3      1323            0.0000000000
     28868      1523  TIP3      H1              4.8925729517      -18.8998205226       38.0931209057  TIP3      1323            0.0000000000
     28869      1523  TIP3      H2              3.6907456316      -19.6740460357       38.5073642297  TIP3      1323            0.0000000000
     28870      1524  TIP3      OH2            12.3982134995      -19.4607873835       38.2128806526  TIP3      1324            0.0000000000
     28871      1524  TIP3      H1             12.3532034900      -20.0681119327       38.9791628513  TIP3      1324            0.0000000000
     28872      1524  TIP3      H2             13.3567612775      -19.5432710871       37.9950202992  TIP3      1324            0.0000000000
     28873      1525  TIP3      OH2            15.8146987032       -3.2027234864       36.7983775704  TIP3      1325            0.0000000000
     28874      1525  TIP3      H1             15.1597435200       -3.4091611143       36.0918242073  TIP3      1325            0.0000000000
     28875      1525  TIP3      H2             15.4908808152       -2.3307327162       37.0990885358  TIP3      1325            0.0000000000
     28876      1526  TIP3      OH2            21.5227349741      -10.5488887388       31.2889104022  TIP3      1326            0.0000000000
     28877      1526  TIP3      H1             21.6821685228      -11.2316068440       31.9602246095  TIP3      1326            0.0000000000
     28878      1526  TIP3      H2             21.4222555027       -9.7527510473       31.8358328585  TIP3      1326            0.0000000000
     28879      1527  TIP3      OH2            32.9588538085       -7.3006900837       28.8769834975  TIP3      1327            0.0000000000
     28880      1527  TIP3      H1             32.7898337267       -7.9510266072       29.5677817600  TIP3      1327            0.0000000000
     28881      1527  TIP3      H2             32.9365281361       -6.4552146446       29.3833676924  TIP3      1327            0.0000000000
     28882      1528  TIP3      OH2            22.4410100683       -5.4125914579       30.0180751738  TIP3      1328            0.0000000000
     28883      1528  TIP3      H1             21.9881247886       -6.2693724090       30.1027704099  TIP3      1328            0.0000000000
     28884      1528  TIP3      H2             23.3222587856       -5.7036673784       29.7309619196  TIP3      1328            0.0000000000
     28885      1529  TIP3      OH2            18.8556827286      -13.1613877962       25.4883281104  TIP3      1329            0.0000000000
     28886      1529  TIP3      H1             19.1552792573      -12.2581015891       25.6760960016  TIP3      1329            0.0000000000
     28887      1529  TIP3      H2             18.1659310518      -13.2428289101       26.1575122722  TIP3      1329            0.0000000000
     28888      1530  TIP3      OH2            19.5690190848      -10.5448607306       27.8119931170  TIP3      1330            0.0000000000
     28889      1530  TIP3      H1             20.0430334086      -11.2725494222       28.2577834711  TIP3      1330            0.0000000000
     28890      1530  TIP3      H2             20.1717278376       -9.7866623374       27.8994287707  TIP3      1330            0.0000000000
     28891      1531  TIP3      OH2            29.9767040472       -2.1278424457       28.4732794524  TIP3      1331            0.0000000000
     28892      1531  TIP3      H1             30.5782304400       -2.6155084378       27.8763907119  TIP3      1331            0.0000000000
     28893      1531  TIP3      H2             29.8524567027       -2.8514718478       29.0944888114  TIP3      1331            0.0000000000
     28894      1532  TIP3      OH2            27.5204139025       -7.6510129497       30.8185423231  TIP3      1332            0.0000000000
     28895      1532  TIP3      H1             27.7793323218       -7.9488522923       29.9355630140  TIP3      1332            0.0000000000
     28896      1532  TIP3      H2             28.3689467344       -7.6069753902       31.3163785746  TIP3      1332            0.0000000000
     28897      1533  TIP3      OH2            36.0829088651      -16.0084360375       30.9943658572  TIP3      1333            0.0000000000
     28898      1533  TIP3      H1             36.0370332846      -15.5151979835       31.8317984815  TIP3      1333            0.0000000000
     28899      1533  TIP3      H2             36.6906337415      -15.4568640318       30.4787431151  TIP3      1333            0.0000000000
     28900      1534  TIP3      OH2            30.6856818179      -13.3952453212       31.2245696474  TIP3      1334            0.0000000000
     28901      1534  TIP3      H1             30.9705856289      -14.3204099671       31.3041043110  TIP3      1334            0.0000000000
     28902      1534  TIP3      H2             30.1108480088      -13.4510152326       30.4553410795  TIP3      1334            0.0000000000
     28903      1535  TIP3      OH2            23.8362672089      -15.6920946397       27.9714736759  TIP3      1335            0.0000000000
     28904      1535  TIP3      H1             24.0448660780      -14.8786408029       27.4566263694  TIP3      1335            0.0000000000
     28905      1535  TIP3      H2             23.3492244521      -16.2086588799       27.2967685556  TIP3      1335            0.0000000000
     28906      1536  TIP3      OH2            31.9773248852      -15.1770504802       26.6485660029  TIP3      1336            0.0000000000
     28907      1536  TIP3      H1             32.3482386237      -15.3409867013       27.5468295252  TIP3      1336            0.0000000000
     28908      1536  TIP3      H2             32.7118357659      -14.6840002413       26.2344842410  TIP3      1336            0.0000000000
     28909      1537  TIP3      OH2            20.2399407683      -13.1354605426       28.8762390936  TIP3      1337            0.0000000000
     28910      1537  TIP3      H1             20.8982038341      -13.4924235997       29.5067275909  TIP3      1337            0.0000000000
     28911      1537  TIP3      H2             20.6993150113      -13.3327604128       28.0309502615  TIP3      1337            0.0000000000
     28912      1538  TIP3      OH2            25.5119625446      -11.4738554077       27.8942576563  TIP3      1338            0.0000000000
     28913      1538  TIP3      H1             25.5035802871      -11.6306946931       28.8539370973  TIP3      1338            0.0000000000
     28914      1538  TIP3      H2             25.0084326426      -12.2424203512       27.5405463386  TIP3      1338            0.0000000000
     28915      1539  TIP3      OH2            36.2294830299      -15.1880668525       33.8116469212  TIP3      1339            0.0000000000
     28916      1539  TIP3      H1             35.6560452654      -14.4369989233       33.5429973568  TIP3      1339            0.0000000000
     28917      1539  TIP3      H2             36.8857729382      -14.7093681315       34.3436015728  TIP3      1339            0.0000000000
     28918      1540  TIP3      OH2            22.7992600563      -16.3471440827       32.2662292679  TIP3      1340            0.0000000000
     28919      1540  TIP3      H1             22.3618817967      -15.8784565998       31.5283051013  TIP3      1340            0.0000000000
     28920      1540  TIP3      H2             22.1490426349      -16.2152175150       32.9897827750  TIP3      1340            0.0000000000
     28921      1541  TIP3      OH2            25.1847293198       -8.7572110267       32.1435487491  TIP3      1341            0.0000000000
     28922      1541  TIP3      H1             24.5164981016       -8.0958291244       32.4348919817  TIP3      1341            0.0000000000
     28923      1541  TIP3      H2             25.8033738438       -8.1472755389       31.7010734357  TIP3      1341            0.0000000000
     28924      1542  TIP3      OH2            33.1055035251      -15.3591998673       29.0156717699  TIP3      1342            0.0000000000
     28925      1542  TIP3      H1             32.7395819199      -16.1411406850       29.4586236815  TIP3      1342            0.0000000000
     28926      1542  TIP3      H2             33.4993495114      -14.8533362245       29.7641036757  TIP3      1342            0.0000000000
     28927      1543  TIP3      OH2            22.2408549310      -14.5394605008       30.1142921650  TIP3      1343            0.0000000000
     28928      1543  TIP3      H1             22.9114862377      -14.0036992174       30.5984917977  TIP3      1343            0.0000000000
     28929      1543  TIP3      H2             22.7923376719      -14.9355746193       29.4065198100  TIP3      1343            0.0000000000
     28930      1544  TIP3      OH2            23.6836107549       -6.6433694490       33.0335214320  TIP3      1344            0.0000000000
     28931      1544  TIP3      H1             23.4219069039       -5.9862920967       32.3752646679  TIP3      1344            0.0000000000
     28932      1544  TIP3      H2             22.8477742558       -6.6770064282       33.5562683532  TIP3      1344            0.0000000000
     28933      1545  TIP3      OH2            19.4632192001       -7.2576662068       24.1140207750  TIP3      1345            0.0000000000
     28934      1545  TIP3      H1             19.3791546087       -6.8567284998       23.2140880895  TIP3      1345            0.0000000000
     28935      1545  TIP3      H2             19.5978338720       -6.4677389099       24.6750346092  TIP3      1345            0.0000000000
     28936      1546  TIP3      OH2            33.1698408155       -5.1913632070       30.6469794339  TIP3      1346            0.0000000000
     28937      1546  TIP3      H1             32.2206309674       -5.1494353151       30.8926764452  TIP3      1346            0.0000000000
     28938      1546  TIP3      H2             33.3330350252       -4.2488912030       30.4461952789  TIP3      1346            0.0000000000
     28939      1547  TIP3      OH2            33.5482668210      -16.4651163433       32.1240546454  TIP3      1347            0.0000000000
     28940      1547  TIP3      H1             32.7189578764      -16.4901991087       31.5955375771  TIP3      1347            0.0000000000
     28941      1547  TIP3      H2             34.2400064590      -16.2998576242       31.4497224996  TIP3      1347            0.0000000000
     28942      1548  TIP3      OH2            26.2681656432      -19.0173831252       29.5911858165  TIP3      1348            0.0000000000
     28943      1548  TIP3      H1             25.9524045830      -19.9134865966       29.7801466519  TIP3      1348            0.0000000000
     28944      1548  TIP3      H2             25.4777045812      -18.4993274726       29.8959684359  TIP3      1348            0.0000000000
     28945      1549  TIP3      OH2            31.7882012920       -4.1796865738       27.6988321680  TIP3      1349            0.0000000000
     28946      1549  TIP3      H1             31.6022009132       -4.7061381135       26.9120155766  TIP3      1349            0.0000000000
     28947      1549  TIP3      H2             32.3847890224       -3.4868720085       27.3564686927  TIP3      1349            0.0000000000
     28948      1550  TIP3      OH2            32.9692014511       -6.1105582301       25.8158259310  TIP3      1350            0.0000000000
     28949      1550  TIP3      H1             32.1616516612       -6.5912849909       25.5751281808  TIP3      1350            0.0000000000
     28950      1550  TIP3      H2             33.0673469655       -6.3340852572       26.7573175001  TIP3      1350            0.0000000000
     28951      1551  TIP3      OH2            34.1668536394       -7.1939746954       34.6637056480  TIP3      1351            0.0000000000
     28952      1551  TIP3      H1             34.1232103931       -7.8051714785       33.8854040477  TIP3      1351            0.0000000000
     28953      1551  TIP3      H2             34.2366839877       -6.3353124193       34.1912260965  TIP3      1351            0.0000000000
     28954      1552  TIP3      OH2            35.8515731746      -10.8608672994       32.4108141709  TIP3      1352            0.0000000000
     28955      1552  TIP3      H1             35.2559154987      -10.0838608285       32.3264883207  TIP3      1352            0.0000000000
     28956      1552  TIP3      H2             36.5776910959      -10.6159586173       31.7730562713  TIP3      1352            0.0000000000
     28957      1553  TIP3      OH2            32.5847264433      -10.5837973632       24.9264859713  TIP3      1353            0.0000000000
     28958      1553  TIP3      H1             32.1550368116       -9.8048401732       25.3015086730  TIP3      1353            0.0000000000
     28959      1553  TIP3      H2             33.1853028714      -10.8581839017       25.6535566905  TIP3      1353            0.0000000000
     28960      1554  TIP3      OH2            32.4379580547      -11.7114916591       34.3400237289  TIP3      1354            0.0000000000
     28961      1554  TIP3      H1             32.2096852827      -10.9130491406       34.8375010684  TIP3      1354            0.0000000000
     28962      1554  TIP3      H2             31.6895753340      -11.6803679456       33.7014401150  TIP3      1354            0.0000000000
     28963      1555  TIP3      OH2            23.5779482067       -9.8273944985       26.9181503579  TIP3      1355            0.0000000000
     28964      1555  TIP3      H1             23.4227051468      -10.1667801876       26.0075218098  TIP3      1355            0.0000000000
     28965      1555  TIP3      H2             24.3943010534      -10.3071014023       27.1716232631  TIP3      1355            0.0000000000
     28966      1556  TIP3      OH2            25.5279595812       -6.1469713401       29.7933695211  TIP3      1356            0.0000000000
     28967      1556  TIP3      H1             25.4874173741       -6.4947136374       28.8850371019  TIP3      1356            0.0000000000
     28968      1556  TIP3      H2             26.2102794909       -6.7182710348       30.2051383243  TIP3      1356            0.0000000000
     28969      1557  TIP3      OH2            24.6787033872      -10.8706443520       30.6063886102  TIP3      1357            0.0000000000
     28970      1557  TIP3      H1             24.1747046313      -10.3728651004       29.9408493652  TIP3      1357            0.0000000000
     28971      1557  TIP3      H2             24.7740409893      -10.1787082786       31.3078115643  TIP3      1357            0.0000000000
     28972      1558  TIP3      OH2            30.7359345605       -5.0821111268       31.6538356793  TIP3      1358            0.0000000000
     28973      1558  TIP3      H1             30.4607428508       -4.5274370919       32.3995484487  TIP3      1358            0.0000000000
     28974      1558  TIP3      H2             30.3453028467       -5.9486693339       31.8973605166  TIP3      1358            0.0000000000
     28975      1559  TIP3      OH2            25.3684395559       -6.1643514662       35.2155681261  TIP3      1359            0.0000000000
     28976      1559  TIP3      H1             24.6509867407       -5.7356309406       35.7498565829  TIP3      1359            0.0000000000
     28977      1559  TIP3      H2             24.9215520613       -6.2935131909       34.3548812818  TIP3      1359            0.0000000000
     28978      1560  TIP3      OH2            22.3779415129      -10.2892071176       34.6763242986  TIP3      1360            0.0000000000
     28979      1560  TIP3      H1             22.4431670439       -9.4552460539       35.1694127749  TIP3      1360            0.0000000000
     28980      1560  TIP3      H2             21.4334482837      -10.4559533562       34.8083733065  TIP3      1360            0.0000000000
     28981      1561  TIP3      OH2            29.3508043887       -3.4406589814       26.0196645697  TIP3      1361            0.0000000000
     28982      1561  TIP3      H1             29.1187227189       -4.2912756777       26.4229988504  TIP3      1361            0.0000000000
     28983      1561  TIP3      H2             28.4777259713       -3.0918021660       25.7949208849  TIP3      1361            0.0000000000
     28984      1562  TIP3      OH2            23.5681554681       -4.5311764636       36.2859573669  TIP3      1362            0.0000000000
     28985      1562  TIP3      H1             23.5535517354       -3.9646349489       35.4712557182  TIP3      1362            0.0000000000
     28986      1562  TIP3      H2             22.6272592949       -4.7652035090       36.3787818950  TIP3      1362            0.0000000000
     28987      1563  TIP3      OH2            34.4509859517      -18.8450402002       22.8897245250  TIP3      1363            0.0000000000
     28988      1563  TIP3      H1             33.7339938421      -19.0580358192       22.2687769417  TIP3      1363            0.0000000000
     28989      1563  TIP3      H2             35.0787467186      -18.4291260914       22.2762118056  TIP3      1363            0.0000000000
     28990      1564  TIP3      OH2            22.7644134435      -10.5616208157       24.4684544001  TIP3      1364            0.0000000000
     28991      1564  TIP3      H1             22.5805426479       -9.6240727259       24.1982295437  TIP3      1364            0.0000000000
     28992      1564  TIP3      H2             21.9338546255      -10.9535953812       24.1864269040  TIP3      1364            0.0000000000
     28993      1565  TIP3      OH2            19.1709579313       -8.0283752367       34.1446971940  TIP3      1365            0.0000000000
     28994      1565  TIP3      H1             19.2518555288       -7.9041791912       33.1625948789  TIP3      1365            0.0000000000
     28995      1565  TIP3      H2             19.3298020999       -8.9927579164       34.2372273713  TIP3      1365            0.0000000000
     28996      1566  TIP3      OH2            19.1802895043       -5.0145058155       29.6878008719  TIP3      1366            0.0000000000
     28997      1566  TIP3      H1             19.6681979277       -5.8640290128       29.7852179036  TIP3      1366            0.0000000000
     28998      1566  TIP3      H2             18.9732236258       -4.8778667613       30.6232841611  TIP3      1366            0.0000000000
     28999      1567  TIP3      OH2            37.0097412423       -4.4993689218       36.0068561793  TIP3      1367            0.0000000000
     29000      1567  TIP3      H1             36.9379831059       -5.4459587988       35.8099909123  TIP3      1367            0.0000000000
     29001      1567  TIP3      H2             36.1573561516       -4.3966924271       36.4937532459  TIP3      1367            0.0000000000
     29002      1568  TIP3      OH2            27.8257158194       -5.0367397376       35.2534610833  TIP3      1368            0.0000000000
     29003      1568  TIP3      H1             27.8423458052       -4.2651009855       35.8435860802  TIP3      1368            0.0000000000
     29004      1568  TIP3      H2             26.8776907947       -5.3204623252       35.2534943844  TIP3      1368            0.0000000000
     29005      1569  TIP3      OH2            28.1128650358       -1.0443964272       24.4431075910  TIP3      1369            0.0000000000
     29006      1569  TIP3      H1             28.1380992168       -0.6976624456       23.5531536665  TIP3      1369            0.0000000000
     29007      1569  TIP3      H2             28.4350665182       -0.3008238305       24.9747806199  TIP3      1369            0.0000000000
     29008      1570  TIP3      OH2            21.9583229698       -2.5131260550       26.6061647808  TIP3      1370            0.0000000000
     29009      1570  TIP3      H1             22.3056307715       -2.7463860942       27.4959820584  TIP3      1370            0.0000000000
     29010      1570  TIP3      H2             21.2248772635       -3.1519841505       26.4790420945  TIP3      1370            0.0000000000
     29011      1571  TIP3      OH2            30.9364185315       -2.0753620447       24.0452711454  TIP3      1371            0.0000000000
     29012      1571  TIP3      H1             30.0914395723       -2.1531885815       24.5374108354  TIP3      1371            0.0000000000
     29013      1571  TIP3      H2             31.4904090930       -2.6504705171       24.5826653889  TIP3      1371            0.0000000000
     29014      1572  TIP3      OH2            33.7075405015      -12.8477245842       36.6051080204  TIP3      1372            0.0000000000
     29015      1572  TIP3      H1             33.2498949893      -12.5420386244       35.7940877866  TIP3      1372            0.0000000000
     29016      1572  TIP3      H2             33.8953369391      -13.7725855613       36.3641309228  TIP3      1372            0.0000000000
     29017      1573  TIP3      OH2            21.4824508316       -6.6071626815       34.5225251483  TIP3      1373            0.0000000000
     29018      1573  TIP3      H1             21.5370113159       -6.9226250916       35.4482994733  TIP3      1373            0.0000000000
     29019      1573  TIP3      H2             20.6235749026       -6.9719270643       34.2390162936  TIP3      1373            0.0000000000
     29020      1574  TIP3      OH2            24.0918780359      -17.8927344475       30.4669976771  TIP3      1374            0.0000000000
     29021      1574  TIP3      H1             23.2463067027      -17.8285123275       29.9820849561  TIP3      1374            0.0000000000
     29022      1574  TIP3      H2             23.8797033092      -17.3535743689       31.2510299985  TIP3      1374            0.0000000000
     29023      1575  TIP3      OH2            28.8836563018      -18.5514910139       33.7159503547  TIP3      1375            0.0000000000
     29024      1575  TIP3      H1             29.2083904375      -19.0732335821       34.4813283280  TIP3      1375            0.0000000000
     29025      1575  TIP3      H2             27.8986801824      -18.5835625539       33.8012951309  TIP3      1375            0.0000000000
     29026      1576  TIP3      OH2            31.6418266172      -14.6333835515       34.7868449041  TIP3      1376            0.0000000000
     29027      1576  TIP3      H1             31.1705284406      -15.1004566098       35.5138889163  TIP3      1376            0.0000000000
     29028      1576  TIP3      H2             31.1437980476      -13.8015970265       34.7472263728  TIP3      1376            0.0000000000
     29029      1577  TIP3      OH2            24.0957955774      -13.3071065245       31.7410305998  TIP3      1377            0.0000000000
     29030      1577  TIP3      H1             23.3261795850      -13.2357129234       32.3434925965  TIP3      1377            0.0000000000
     29031      1577  TIP3      H2             24.2741378834      -12.3631409531       31.5386796027  TIP3      1377            0.0000000000
     29032      1578  TIP3      OH2            24.0653109257      -13.3338480027       26.6303206396  TIP3      1378            0.0000000000
     29033      1578  TIP3      H1             23.0857349700      -13.3450375491       26.5886225485  TIP3      1378            0.0000000000
     29034      1578  TIP3      H2             24.2626959712      -13.4737336529       25.6733559723  TIP3      1378            0.0000000000
     29035      1579  TIP3      OH2            28.2811943899      -12.2772500921       36.9190341192  TIP3      1379            0.0000000000
     29036      1579  TIP3      H1             27.9056646817      -13.1359156364       37.2147820363  TIP3      1379            0.0000000000
     29037      1579  TIP3      H2             29.0044510681      -12.1676227704       37.5480403590  TIP3      1379            0.0000000000
     29038      1580  TIP3      OH2            21.7425208107      -13.1791926738       33.0148959240  TIP3      1380            0.0000000000
     29039      1580  TIP3      H1             22.0636859450      -12.7533263479       33.8227635961  TIP3      1380            0.0000000000
     29040      1580  TIP3      H2             21.3571121370      -14.0150250998       33.3619821659  TIP3      1380            0.0000000000
     29041      1581  TIP3      OH2            19.6956155274      -14.8514495159       22.6178114373  TIP3      1381            0.0000000000
     29042      1581  TIP3      H1             20.3932963693      -14.7478946791       21.9510868279  TIP3      1381            0.0000000000
     29043      1581  TIP3      H2             19.4526366949      -13.9246543367       22.7367185355  TIP3      1381            0.0000000000
     29044      1582  TIP3      OH2            30.2164838777      -11.3357602902       32.8623318766  TIP3      1382            0.0000000000
     29045      1582  TIP3      H1             30.4246414429      -12.0735023936       32.2447207932  TIP3      1382            0.0000000000
     29046      1582  TIP3      H2             29.4973380598      -11.7616004494       33.3666363989  TIP3      1382            0.0000000000
     29047      1583  TIP3      OH2            26.6712304913      -15.7135631993       27.6865808643  TIP3      1383            0.0000000000
     29048      1583  TIP3      H1             25.7249995850      -15.7440994866       27.9205786119  TIP3      1383            0.0000000000
     29049      1583  TIP3      H2             27.0868637902      -15.9978686375       28.5204637539  TIP3      1383            0.0000000000
     29050      1584  TIP3      OH2            21.4207485108      -13.8835777282       26.3754666643  TIP3      1384            0.0000000000
     29051      1584  TIP3      H1             20.5785249316      -13.8733223021       25.8747089069  TIP3      1384            0.0000000000
     29052      1584  TIP3      H2             21.7676750576      -14.7807421721       26.1459833629  TIP3      1384            0.0000000000
     29053      1585  TIP3      OH2            24.7477152581      -13.8117447738       24.0980989325  TIP3      1385            0.0000000000
     29054      1585  TIP3      H1             25.7066436498      -13.8671494210       24.2803804211  TIP3      1385            0.0000000000
     29055      1585  TIP3      H2             24.7151776109      -13.0375400986       23.5165517765  TIP3      1385            0.0000000000
     29056      1586  TIP3      OH2            31.1743023842      -16.3593609081       30.8430411223  TIP3      1386            0.0000000000
     29057      1586  TIP3      H1             30.4375859351      -16.3940208002       31.4951047128  TIP3      1386            0.0000000000
     29058      1586  TIP3      H2             30.7730575020      -16.7553398026       30.0544412993  TIP3      1386            0.0000000000
     29059      1587  TIP3      OH2            34.1073217950       -0.9487180618       37.4617602241  TIP3      1387            0.0000000000
     29060      1587  TIP3      H1             34.5208564039       -0.5599548891       36.6700558638  TIP3      1387            0.0000000000
     29061      1587  TIP3      H2             34.8356004408       -0.8342672028       38.1052888239  TIP3      1387            0.0000000000
     29062      1588  TIP3      OH2            21.8985939403       -8.3290300537       36.8304670464  TIP3      1388            0.0000000000
     29063      1588  TIP3      H1             22.5685300637       -8.0890862981       37.5011559670  TIP3      1388            0.0000000000
     29064      1588  TIP3      H2             21.1524414451       -8.6018261509       37.3917639940  TIP3      1388            0.0000000000
     29065      1589  TIP3      OH2            22.3076685930      -16.4214327947       25.9102622411  TIP3      1389            0.0000000000
     29066      1589  TIP3      H1             21.9220844806      -17.2253564910       26.3324066283  TIP3      1389            0.0000000000
     29067      1589  TIP3      H2             22.7215569876      -16.8279214316       25.1389108882  TIP3      1389            0.0000000000
     29068      1590  TIP3      OH2            26.4120160572      -14.6141304184       32.0036292006  TIP3      1390            0.0000000000
     29069      1590  TIP3      H1             25.6488054230      -13.9983266633       31.9645318237  TIP3      1390            0.0000000000
     29070      1590  TIP3      H2             27.0836193733      -14.0844984014       32.4622883820  TIP3      1390            0.0000000000
     29071      1591  TIP3      OH2            34.2112011958       -8.5349337851       32.4469535694  TIP3      1391            0.0000000000
     29072      1591  TIP3      H1             34.7410661657       -8.2527075059       31.6795554597  TIP3      1391            0.0000000000
     29073      1591  TIP3      H2             33.4236721437       -8.9262418676       32.0092353978  TIP3      1391            0.0000000000
     29074      1592  TIP3      OH2            28.4891488438       -7.6788925173       34.9601242919  TIP3      1392            0.0000000000
     29075      1592  TIP3      H1             28.0863829010       -8.0620029711       35.7459103546  TIP3      1392            0.0000000000
     29076      1592  TIP3      H2             28.3483433354       -6.7241402785       35.1136107633  TIP3      1392            0.0000000000
     29077      1593  TIP3      OH2            32.0061790133      -13.5439683366       23.3269518207  TIP3      1393            0.0000000000
     29078      1593  TIP3      H1             32.7374708339      -13.6658243155       23.9615787423  TIP3      1393            0.0000000000
     29079      1593  TIP3      H2             31.8674738471      -12.5882162820       23.4329606181  TIP3      1393            0.0000000000
     29080      1594  TIP3      OH2            22.3081130934       -8.6552268294       29.1724444913  TIP3      1394            0.0000000000
     29081      1594  TIP3      H1             22.5911470402       -9.0071498578       28.3028489287  TIP3      1394            0.0000000000
     29082      1594  TIP3      H2             22.1649442525       -9.4409232083       29.7305763356  TIP3      1394            0.0000000000
     29083      1595  TIP3      OH2            19.4797747560      -10.5898617858       34.7953097511  TIP3      1395            0.0000000000
     29084      1595  TIP3      H1             19.0982871578      -11.0967094451       35.5297037222  TIP3      1395            0.0000000000
     29085      1595  TIP3      H2             18.8269540703      -10.8014831909       34.0797174385  TIP3      1395            0.0000000000
     29086      1596  TIP3      OH2            26.1591166368      -10.7125463682       36.6808978399  TIP3      1396            0.0000000000
     29087      1596  TIP3      H1             25.7091493072      -11.2702229266       36.0261118911  TIP3      1396            0.0000000000
     29088      1596  TIP3      H2             27.0257225692      -11.1675471739       36.7537398455  TIP3      1396            0.0000000000
     29089      1597  TIP3      OH2            31.0976556611       -5.5602982686       35.1441305446  TIP3      1397            0.0000000000
     29090      1597  TIP3      H1             30.2661248625       -5.3275480643       34.7003888876  TIP3      1397            0.0000000000
     29091      1597  TIP3      H2             30.9535288787       -5.1606495954       36.0217406479  TIP3      1397            0.0000000000
     29092      1598  TIP3      OH2            36.2537615674      -13.0151197914       23.0506837659  TIP3      1398            0.0000000000
     29093      1598  TIP3      H1             36.2666441768      -13.7971970272       22.4830492315  TIP3      1398            0.0000000000
     29094      1598  TIP3      H2             36.6459841049      -12.3278873626       22.4914643180  TIP3      1398            0.0000000000
     29095      1599  TIP3      OH2            36.4266321954       -7.5554551786       35.9284596124  TIP3      1399            0.0000000000
     29096      1599  TIP3      H1             35.5559030175       -7.2679465162       35.5612253899  TIP3      1399            0.0000000000
     29097      1599  TIP3      H2             36.9592903373       -7.6897047361       35.1081629540  TIP3      1399            0.0000000000
     29098      1600  TIP3      OH2            34.8385486844       -4.8839296589       23.8119719020  TIP3      1400            0.0000000000
     29099      1600  TIP3      H1             34.2419054019       -5.1519871923       24.5435887435  TIP3      1400            0.0000000000
     29100      1600  TIP3      H2             34.3171588241       -5.0208517101       23.0157589063  TIP3      1400            0.0000000000
     29101      1601  TIP3      OH2            32.3210711812       -9.7476654168       30.8314750719  TIP3      1401            0.0000000000
     29102      1601  TIP3      H1             31.3753808913       -9.8847703402       30.9853400154  TIP3      1401            0.0000000000
     29103      1601  TIP3      H2             32.5314715653      -10.4278787754       30.1712911726  TIP3      1401            0.0000000000
     29104      1602  TIP3      OH2            24.3381798397       -5.4751925471       27.2691300153  TIP3      1402            0.0000000000
     29105      1602  TIP3      H1             25.1477453359       -5.0455192441       26.9510121000  TIP3      1402            0.0000000000
     29106      1602  TIP3      H2             23.6432493161       -5.0340179002       26.7673366141  TIP3      1402            0.0000000000
     29107      1603  TIP3      OH2            20.3355043139      -10.2596680044       21.4750757432  TIP3      1403            0.0000000000
     29108      1603  TIP3      H1             21.1475060717      -10.1628985984       21.9998635597  TIP3      1403            0.0000000000
     29109      1603  TIP3      H2             19.8800327393       -9.4304058552       21.6705088914  TIP3      1403            0.0000000000
     29110      1604  TIP3      OH2            26.4908933925       -3.5813980267       33.1873613158  TIP3      1404            0.0000000000
     29111      1604  TIP3      H1             27.0384934279       -2.9215529539       32.7420589506  TIP3      1404            0.0000000000
     29112      1604  TIP3      H2             27.0990861084       -3.9573440359       33.8600207373  TIP3      1404            0.0000000000
     29113      1605  TIP3      OH2            24.4729158590       -2.1038738948       25.6669736623  TIP3      1405            0.0000000000
     29114      1605  TIP3      H1             23.5886553542       -2.1136077858       26.0850013217  TIP3      1405            0.0000000000
     29115      1605  TIP3      H2             24.8898859997       -1.3298661254       26.0998408113  TIP3      1405            0.0000000000
     29116      1606  TIP3      OH2            29.6484352831       -7.6393295527       32.5509844444  TIP3      1406            0.0000000000
     29117      1606  TIP3      H1             29.1423511914       -7.7613869486       33.3947899129  TIP3      1406            0.0000000000
     29118      1606  TIP3      H2             30.3498413449       -8.2906684541       32.7177944376  TIP3      1406            0.0000000000
     29119      1607  TIP3      OH2            32.6356669735       -3.0226404175       34.9355461606  TIP3      1407            0.0000000000
     29120      1607  TIP3      H1             31.7403544240       -3.4158167037       34.8686553725  TIP3      1407            0.0000000000
     29121      1607  TIP3      H2             32.6983629519       -2.4808428413       34.1172175645  TIP3      1407            0.0000000000
     29122      1608  TIP3      OH2            36.8718170112       -1.5018313664       21.9129940622  TIP3      1408            0.0000000000
     29123      1608  TIP3      H1             37.2669550255       -0.9934844451       21.1856862510  TIP3      1408            0.0000000000
     29124      1608  TIP3      H2             36.1813843797       -1.9989720462       21.4407058065  TIP3      1408            0.0000000000
     29125      1609  TIP3      OH2            20.9286308244      -15.6260759933       34.3047923823  TIP3      1409            0.0000000000
     29126      1609  TIP3      H1             20.3919183859      -15.2229910818       35.0103269676  TIP3      1409            0.0000000000
     29127      1609  TIP3      H2             20.8884804814      -16.5513727138       34.5933940607  TIP3      1409            0.0000000000
     29128      1610  TIP3      OH2            20.6477011839       -3.7920439551       32.5905900949  TIP3      1410            0.0000000000
     29129      1610  TIP3      H1             21.0925038575       -4.6399804419       32.4665177546  TIP3      1410            0.0000000000
     29130      1610  TIP3      H2             21.0100412539       -3.5355318515       33.4457776838  TIP3      1410            0.0000000000
     29131      1611  TIP3      OH2            25.1222041747       -6.0124274575       22.5390358931  TIP3      1411            0.0000000000
     29132      1611  TIP3      H1             25.8839108085       -6.4309195151       22.9743497404  TIP3      1411            0.0000000000
     29133      1611  TIP3      H2             25.1707146661       -5.1044952060       22.9231225592  TIP3      1411            0.0000000000
     29134      1612  TIP3      OH2            21.8066245876       -8.4805564605       23.2022345298  TIP3      1412            0.0000000000
     29135      1612  TIP3      H1             21.0971878333       -8.0861808786       23.7499046721  TIP3      1412            0.0000000000
     29136      1612  TIP3      H2             22.1175168469       -7.6932472716       22.7022674736  TIP3      1412            0.0000000000
     29137      1613  TIP3      OH2            29.5171514658      -15.8910687958       33.3805648786  TIP3      1413            0.0000000000
     29138      1613  TIP3      H1             30.3775596332      -15.7953911651       33.8194310396  TIP3      1413            0.0000000000
     29139      1613  TIP3      H2             29.2388525228      -16.7743399033       33.7020993030  TIP3      1413            0.0000000000
     29140      1614  TIP3      OH2            30.2305172971      -16.0087365097       24.8114462997  TIP3      1414            0.0000000000
     29141      1614  TIP3      H1             30.7521094857      -15.3863814670       24.2799771125  TIP3      1414            0.0000000000
     29142      1614  TIP3      H2             30.8491425803      -16.0258373108       25.5804120601  TIP3      1414            0.0000000000
     29143      1615  TIP3      OH2            27.5174760243      -14.1504959548       25.0107064400  TIP3      1415            0.0000000000
     29144      1615  TIP3      H1             28.2212931901      -14.6643178806       24.5895091280  TIP3      1415            0.0000000000
     29145      1615  TIP3      H2             27.1459246613      -14.7668050076       25.6623631959  TIP3      1415            0.0000000000
     29146      1616  TIP3      OH2            28.6581754470      -13.2869065476       34.3363584894  TIP3      1416            0.0000000000
     29147      1616  TIP3      H1             28.4901532264      -13.0719140817       35.2798474617  TIP3      1416            0.0000000000
     29148      1616  TIP3      H2             28.9140759555      -14.2242333351       34.3200375472  TIP3      1416            0.0000000000
     29149      1617  TIP3      OH2            28.3118692689      -17.5416405393       26.1026759293  TIP3      1417            0.0000000000
     29150      1617  TIP3      H1             27.9113540974      -17.0088977985       26.8233905865  TIP3      1417            0.0000000000
     29151      1617  TIP3      H2             28.9168837855      -16.8985265662       25.6752555488  TIP3      1417            0.0000000000
     29152      1618  TIP3      OH2            25.2914562048       -3.6012051613       23.5741928911  TIP3      1418            0.0000000000
     29153      1618  TIP3      H1             25.6457570206       -2.9007212844       23.0017591863  TIP3      1418            0.0000000000
     29154      1618  TIP3      H2             24.8606973149       -3.0575631988       24.2696940805  TIP3      1418            0.0000000000
     29155      1619  TIP3      OH2            24.1675322282      -16.7373339930       22.7479959436  TIP3      1419            0.0000000000
     29156      1619  TIP3      H1             23.6740304157      -15.9185164952       22.8974864482  TIP3      1419            0.0000000000
     29157      1619  TIP3      H2             25.0241835876      -16.4688234042       23.0896457029  TIP3      1419            0.0000000000
     29158      1620  TIP3      OH2            34.0875518234      -15.7028585710       35.4109931688  TIP3      1420            0.0000000000
     29159      1620  TIP3      H1             33.2664965726      -15.4192260327       34.9525487770  TIP3      1420            0.0000000000
     29160      1620  TIP3      H2             34.7683674572      -15.4388718507       34.7660731026  TIP3      1420            0.0000000000
     29161      1621  TIP3      OH2            32.4411722162      -12.2813863006       28.8815535421  TIP3      1421            0.0000000000
     29162      1621  TIP3      H1             32.0507753957      -13.1655078683       28.8972137392  TIP3      1421            0.0000000000
     29163      1621  TIP3      H2             33.0846253465      -12.4233058904       29.6202297149  TIP3      1421            0.0000000000
     29164      1622  TIP3      OH2            22.3940048163       -6.1898276395       21.8907256645  TIP3      1422            0.0000000000
     29165      1622  TIP3      H1             23.2017282597       -5.8130679541       22.3058738885  TIP3      1422            0.0000000000
     29166      1622  TIP3      H2             22.8027588270       -6.5846284813       21.0882746803  TIP3      1422            0.0000000000
     29167      1623  TIP3      OH2            34.1896754138       -2.6781660582       30.7233824776  TIP3      1423            0.0000000000
     29168      1623  TIP3      H1             33.9940831694       -1.9883435782       30.0507363558  TIP3      1423            0.0000000000
     29169      1623  TIP3      H2             35.1582706368       -2.5758009672       30.8337506477  TIP3      1423            0.0000000000
     29170      1624  TIP3      OH2            21.4640528686      -18.4596757667       29.9020485548  TIP3      1424            0.0000000000
     29171      1624  TIP3      H1             21.4716692120      -18.6266620618       28.9379577388  TIP3      1424            0.0000000000
     29172      1624  TIP3      H2             21.1705719126      -19.3235529518       30.2596563211  TIP3      1424            0.0000000000
     29173      1625  TIP3      OH2            20.0833211448       -4.5441088086       25.7903424818  TIP3      1425            0.0000000000
     29174      1625  TIP3      H1             19.2583009868       -4.1367818925       26.0906625447  TIP3      1425            0.0000000000
     29175      1625  TIP3      H2             20.1674637030       -4.1128539664       24.9071247382  TIP3      1425            0.0000000000
     29176      1626  TIP3      OH2            19.3858156281       -1.8694165986       37.1160704370  TIP3      1426            0.0000000000
     29177      1626  TIP3      H1             20.0865699407       -2.0509739361       37.7817706384  TIP3      1426            0.0000000000
     29178      1626  TIP3      H2             19.0385447625       -2.7738615540       36.9705866262  TIP3      1426            0.0000000000
     29179      1627  TIP3      OH2            24.1987023832       -2.9691453240       38.4538346999  TIP3      1427            0.0000000000
     29180      1627  TIP3      H1             25.0351123331       -3.3536349176       38.7615029100  TIP3      1427            0.0000000000
     29181      1627  TIP3      H2             24.0903242585       -3.4209032973       37.5888418787  TIP3      1427            0.0000000000
     29182      1628  TIP3      OH2            30.5890768715       -4.2946471107       37.5425187597  TIP3      1428            0.0000000000
     29183      1628  TIP3      H1             30.2724087998       -5.1778011644       37.8432674848  TIP3      1428            0.0000000000
     29184      1628  TIP3      H2             31.4466596656       -4.2544777928       38.0019291025  TIP3      1428            0.0000000000
     29185      1629  TIP3      OH2            19.3861547178       -8.3336716795       38.3451885245  TIP3      1429            0.0000000000
     29186      1629  TIP3      H1             19.1272858773       -9.2658874659       38.2145421815  TIP3      1429            0.0000000000
     29187      1629  TIP3      H2             18.8383125536       -7.9173581405       37.6465839934  TIP3      1429            0.0000000000
     29188      1630  TIP3      OH2            23.7285481946       -7.5250332468       19.9365593991  TIP3      1430            0.0000000000
     29189      1630  TIP3      H1             24.1281535657       -7.7939095974       20.7905303049  TIP3      1430            0.0000000000
     29190      1630  TIP3      H2             24.1472557573       -8.1493448897       19.3400853831  TIP3      1430            0.0000000000
     29191      1631  TIP3      OH2            25.9925749652       -8.0739691358       37.0690562902  TIP3      1431            0.0000000000
     29192      1631  TIP3      H1             25.8509135423       -7.5919041143       36.2204964039  TIP3      1431            0.0000000000
     29193      1631  TIP3      H2             26.0380990671       -9.0283369081       36.8175904043  TIP3      1431            0.0000000000
     29194      1632  TIP3      OH2            31.8455299621       -8.3951245651       35.0090064044  TIP3      1432            0.0000000000
     29195      1632  TIP3      H1             32.7358108516       -7.9821978527       35.1042501889  TIP3      1432            0.0000000000
     29196      1632  TIP3      H2             31.3145880818       -7.5753707461       35.0670152484  TIP3      1432            0.0000000000
     29197      1633  TIP3      OH2            20.5356240096      -11.0792331750       37.9431058996  TIP3      1433            0.0000000000
     29198      1633  TIP3      H1             21.0724067230      -11.8746649287       37.8405772750  TIP3      1433            0.0000000000
     29199      1633  TIP3      H2             20.9599915497      -10.5930084261       38.6850119991  TIP3      1433            0.0000000000
     29200      1634  TIP3      OH2            24.6951857629       -9.6141939612       22.1965737632  TIP3      1434            0.0000000000
     29201      1634  TIP3      H1             24.3626976167       -9.9724701897       23.0312919156  TIP3      1434            0.0000000000
     29202      1634  TIP3      H2             25.1854895631      -10.3765853963       21.8301759429  TIP3      1434            0.0000000000
     29203      1635  TIP3      OH2            24.3614791913      -11.9835973940       34.5179693312  TIP3      1435            0.0000000000
     29204      1635  TIP3      H1             23.6284465406      -11.3341765154       34.5672107041  TIP3      1435            0.0000000000
     29205      1635  TIP3      H2             25.0681740353      -11.4703477916       34.0784153128  TIP3      1435            0.0000000000
     29206      1636  TIP3      OH2            26.1279792779      -11.8132353553       21.1350520849  TIP3      1436            0.0000000000
     29207      1636  TIP3      H1             26.1969894065      -12.4267095512       20.3952158917  TIP3      1436            0.0000000000
     29208      1636  TIP3      H2             26.9537105347      -11.2971096798       21.0878511197  TIP3      1436            0.0000000000
     29209      1637  TIP3      OH2            29.3070680409       -9.1956564914       38.4050584137  TIP3      1437            0.0000000000
     29210      1637  TIP3      H1             30.0591609169       -9.4704262587       37.8604332037  TIP3      1437            0.0000000000
     29211      1637  TIP3      H2             29.0899325491      -10.0419465509       38.8609466978  TIP3      1437            0.0000000000
     29212      1638  TIP3      OH2            24.9667888355      -14.3548103752       35.4763462046  TIP3      1438            0.0000000000
     29213      1638  TIP3      H1             25.0678607438      -14.9827978802       34.7340179468  TIP3      1438            0.0000000000
     29214      1638  TIP3      H2             24.9021628205      -13.4818897783       35.0210378398  TIP3      1438            0.0000000000
     29215      1639  TIP3      OH2            25.1411376841      -16.4109347927       33.4878835145  TIP3      1439            0.0000000000
     29216      1639  TIP3      H1             25.6415096226      -15.8639230444       32.8372501883  TIP3      1439            0.0000000000
     29217      1639  TIP3      H2             24.2422968651      -16.3698721720       33.0920245425  TIP3      1439            0.0000000000
     29218      1640  TIP3      OH2            26.5025377596      -10.6207056746       33.5583987026  TIP3      1440            0.0000000000
     29219      1640  TIP3      H1             27.4297592955      -10.4253444248       33.3835200988  TIP3      1440            0.0000000000
     29220      1640  TIP3      H2             26.0386971499       -9.8813142366       33.1031661682  TIP3      1440            0.0000000000
     29221      1641  TIP3      OH2            31.6502690998      -13.3648594646       38.3662216403  TIP3      1441            0.0000000000
     29222      1641  TIP3      H1             32.1320707660      -14.2022603142       38.3331862555  TIP3      1441            0.0000000000
     29223      1641  TIP3      H2             32.2191251246      -12.8647852173       37.7467013543  TIP3      1441            0.0000000000
     29224      1642  TIP3      OH2            32.1662923583      -10.0580781965       37.0766894614  TIP3      1442            0.0000000000
     29225      1642  TIP3      H1             31.9776393821       -9.5004090303       36.2950974102  TIP3      1442            0.0000000000
     29226      1642  TIP3      H2             33.0889965943      -10.3296918510       36.9240484842  TIP3      1442            0.0000000000
     29227      1643  TIP3      OH2            23.4081809096      -13.6680726303       37.6946329842  TIP3      1443            0.0000000000
     29228      1643  TIP3      H1             22.5532315651      -14.0803254763       37.4525481422  TIP3      1443            0.0000000000
     29229      1643  TIP3      H2             23.9396575641      -13.8931229932       36.9020941647  TIP3      1443            0.0000000000
     29230      1644  TIP3      OH2            26.2279990040      -18.8095320931       33.5220383400  TIP3      1444            0.0000000000
     29231      1644  TIP3      H1             25.9093068902      -17.8833143929       33.6071387913  TIP3      1444            0.0000000000
     29232      1644  TIP3      H2             25.3929300376      -19.2507993293       33.3419405573  TIP3      1444            0.0000000000
     29233      1645  TIP3      OH2            27.0915336296      -14.6035268130       37.6905210615  TIP3      1445            0.0000000000
     29234      1645  TIP3      H1             26.4837501228      -14.8991704417       38.3956107126  TIP3      1445            0.0000000000
     29235      1645  TIP3      H2             26.5305965094      -14.7170558042       36.9038935806  TIP3      1445            0.0000000000
     29236      1646  TIP3      OH2            29.9146793210      -15.4256128063       36.8002651122  TIP3      1446            0.0000000000
     29237      1646  TIP3      H1             29.0928207254      -15.1770846007       37.2591101399  TIP3      1446            0.0000000000
     29238      1646  TIP3      H2             30.3825071574      -15.9084887644       37.5163053800  TIP3      1446            0.0000000000
     29239      1647  TIP3      OH2            31.6165719242      -16.6310295889       38.4946098000  TIP3      1447            0.0000000000
     29240      1647  TIP3      H1             31.4979818928      -17.6122718675       38.5003293058  TIP3      1447            0.0000000000
     29241      1647  TIP3      H2             31.3175025034      -16.3871699275       39.3993321798  TIP3      1447            0.0000000000
     29242      1648  TIP3      OH2            21.1733868324      -15.4403870632       37.7930781317  TIP3      1448            0.0000000000
     29243      1648  TIP3      H1             20.9918855478      -16.2556367753       37.2859763364  TIP3      1448            0.0000000000
     29244      1648  TIP3      H2             21.0071663776      -15.7558040290       38.7179772450  TIP3      1448            0.0000000000
     29245      1649  TIP3      OH2            25.8086072888      -19.1777984494       36.4556268730  TIP3      1449            0.0000000000
     29246      1649  TIP3      H1             26.5205093479      -19.8190538494       36.6333540704  TIP3      1449            0.0000000000
     29247      1649  TIP3      H2             25.8766806204      -19.1269105596       35.4836207697  TIP3      1449            0.0000000000
     29248      1650  TIP3      OH2            26.1101362134      -17.9215938847       39.0208634391  TIP3      1450            0.0000000000
     29249      1650  TIP3      H1             25.9754058497      -18.2360131780       38.1034867722  TIP3      1450            0.0000000000
     29250      1650  TIP3      H2             25.6226233210      -17.0721031112       39.0270600457  TIP3      1450            0.0000000000
     29251      1651  TIP3      OH2            25.6719765814       -1.1630732091       21.8102337243  TIP3      1451            0.0000000000
     29252      1651  TIP3      H1             26.4887824732       -1.2684903761       21.2969518030  TIP3      1451            0.0000000000
     29253      1651  TIP3      H2             25.4557263190       -0.2369479943       21.6001917324  TIP3      1451            0.0000000000
     29254      1652  TIP3      OH2            19.6857064453       -6.3766226272       21.4777812173  TIP3      1452            0.0000000000
     29255      1652  TIP3      H1             20.6632768394       -6.2578205844       21.5268523307  TIP3      1452            0.0000000000
     29256      1652  TIP3      H2             19.5327404472       -6.2964003722       20.5215322835  TIP3      1452            0.0000000000
     29257      1653  TIP3      OH2            18.9984723221       -2.8283552442       28.1311307360  TIP3      1453            0.0000000000
     29258      1653  TIP3      H1             19.1835231423       -3.7659160277       28.3867311037  TIP3      1453            0.0000000000
     29259      1653  TIP3      H2             18.5735910065       -2.5312374639       28.9560333281  TIP3      1453            0.0000000000
     29260      1654  TIP3      OH2            37.0620800040       -2.3969470416       31.4336267751  TIP3      1454            0.0000000000
     29261      1654  TIP3      H1             37.0051958630       -2.6006980907       32.3893421355  TIP3      1454            0.0000000000
     29262      1654  TIP3      H2             36.9309783835       -1.4246540567       31.4809792233  TIP3      1454            0.0000000000
     29263      1655  TIP3      OH2            36.2680609641       -2.7364622412       34.0357967180  TIP3      1455            0.0000000000
     29264      1655  TIP3      H1             35.7779953454       -3.4710515286       33.6055508322  TIP3      1455            0.0000000000
     29265      1655  TIP3      H2             36.6411816330       -3.2263010091       34.8032084760  TIP3      1455            0.0000000000
     29266      1656  TIP3      OH2            34.7571927628       -6.7776419825       38.9987553060  TIP3      1456            0.0000000000
     29267      1656  TIP3      H1             33.8954675945       -6.6470716685       39.4417679852  TIP3      1456            0.0000000000
     29268      1656  TIP3      H2             35.1683029029       -5.8924815017       39.1002831734  TIP3      1456            0.0000000000
     29269      1657  TIP3      OH2            36.3326764097       -8.3423729010       23.9473357203  TIP3      1457            0.0000000000
     29270      1657  TIP3      H1             36.4983667881       -7.5534192176       24.4854166592  TIP3      1457            0.0000000000
     29271      1657  TIP3      H2             36.1948810793       -8.9855888754       24.6639871571  TIP3      1457            0.0000000000
     29272      1658  TIP3      OH2            36.3234638603      -10.6104361114       25.9948707822  TIP3      1458            0.0000000000
     29273      1658  TIP3      H1             35.4745304808      -11.0033218616       26.3059462921  TIP3      1458            0.0000000000
     29274      1658  TIP3      H2             36.7418500459      -10.3175266235       26.8121968293  TIP3      1458            0.0000000000
     29275      1659  TIP3      OH2            36.4528374388       -7.9197545228       30.9259652500  TIP3      1459            0.0000000000
     29276      1659  TIP3      H1             37.4060065003       -7.9152674419       30.7270825245  TIP3      1459            0.0000000000
     29277      1659  TIP3      H2             36.2414326106       -6.9923061172       30.6810775221  TIP3      1459            0.0000000000
     29278      1660  TIP3      OH2            34.7224094262       -4.8115584131       33.2545833998  TIP3      1460            0.0000000000
     29279      1660  TIP3      H1             33.9500791526       -4.3596516970       33.6199857749  TIP3      1460            0.0000000000
     29280      1660  TIP3      H2             34.4736294559       -4.9243121265       32.3180484760  TIP3      1460            0.0000000000
     29281      1661  TIP3      OH2            36.8752808381      -10.2672174787       22.0970048579  TIP3      1461            0.0000000000
     29282      1661  TIP3      H1             35.9237142646      -10.2790048124       22.2359450871  TIP3      1461            0.0000000000
     29283      1661  TIP3      H2             37.1337243775       -9.8375661619       22.9334903602  TIP3      1461            0.0000000000
     29284      1662  TIP3      OH2            34.0695160526      -11.8966997566       26.7762076449  TIP3      1462            0.0000000000
     29285      1662  TIP3      H1             33.7951171069      -12.7242313765       26.3159471148  TIP3      1462            0.0000000000
     29286      1662  TIP3      H2             33.6706348967      -12.0207959162       27.6626687591  TIP3      1462            0.0000000000
     29287      1663  TIP3      OH2            18.9010912054      -10.3384053728       30.6471477785  TIP3      1463            0.0000000000
     29288      1663  TIP3      H1             18.9308015290      -10.1516553086       29.6923223772  TIP3      1463            0.0000000000
     29289      1663  TIP3      H2             19.7875476181       -9.9726080076       30.8762104363  TIP3      1463            0.0000000000
     29290      1664  TIP3      OH2            34.9734586494       -9.9181179772       36.3806043115  TIP3      1464            0.0000000000
     29291      1664  TIP3      H1             35.6966357113      -10.5236752441       36.1086205028  TIP3      1464            0.0000000000
     29292      1664  TIP3      H2             35.4333169921       -9.0558128676       36.2657116395  TIP3      1464            0.0000000000
     29293      1665  TIP3      OH2            36.4756652696      -12.0835639808       36.4748423468  TIP3      1465            0.0000000000
     29294      1665  TIP3      H1             35.5162383231      -12.0634905695       36.6776720096  TIP3      1465            0.0000000000
     29295      1665  TIP3      H2             36.6887882637      -13.0250182831       36.6999444155  TIP3      1465            0.0000000000
     29296      1666  TIP3      OH2            34.0930925370      -14.0400003757       25.1304892239  TIP3      1466            0.0000000000
     29297      1666  TIP3      H1             34.3868642153      -14.9534877710       24.8999929730  TIP3      1466            0.0000000000
     29298      1666  TIP3      H2             34.9112266532      -13.5558789436       24.9354624609  TIP3      1466            0.0000000000
     29299      1667  TIP3      OH2            34.0049570118      -13.3869777035       30.6442171521  TIP3      1467            0.0000000000
     29300      1667  TIP3      H1             34.9737003472      -13.4795657498       30.5004003294  TIP3      1467            0.0000000000
     29301      1667  TIP3      H2             33.9802975675      -13.4435295686       31.6175214703  TIP3      1467            0.0000000000
     29302      1668  TIP3      OH2            34.5544345297      -13.0546631076       33.3838216542  TIP3      1468            0.0000000000
     29303      1668  TIP3      H1             33.6700217508      -12.7122998069       33.6537741471  TIP3      1468            0.0000000000
     29304      1668  TIP3      H2             34.9630692368      -12.2270585002       33.0548370211  TIP3      1468            0.0000000000
     29305      1669  TIP3      OH2            19.0747702308      -14.4838758129       36.6433213165  TIP3      1469            0.0000000000
     29306      1669  TIP3      H1             19.9077772029      -14.5789701593       37.1569808905  TIP3      1469            0.0000000000
     29307      1669  TIP3      H2             18.6552229201      -15.3670269085       36.7863679761  TIP3      1469            0.0000000000
     29308      1670  TIP3      OH2            36.6947849695      -19.2342092294       38.5168064734  TIP3      1470            0.0000000000
     29309      1670  TIP3      H1             37.1050923937      -19.8335502100       37.8777125086  TIP3      1470            0.0000000000
     29310      1670  TIP3      H2             36.6145179123      -18.4391247947       37.9414111325  TIP3      1470            0.0000000000
     29311      1671  TIP3      OH2            34.7391687819      -16.4978258346       24.5363118001  TIP3      1471            0.0000000000
     29312      1671  TIP3      H1             35.0062051875      -17.0409821738       25.3052493857  TIP3      1471            0.0000000000
     29313      1671  TIP3      H2             33.8836154339      -16.8918247605       24.3001763295  TIP3      1471            0.0000000000
     29314      1672  TIP3      OH2            19.9044020110      -16.1854595062       29.8810183153  TIP3      1472            0.0000000000
     29315      1672  TIP3      H1             20.4630147871      -16.9827732674       30.0152484684  TIP3      1472            0.0000000000
     29316      1672  TIP3      H2             20.5626239840      -15.5050775486       29.6859706812  TIP3      1472            0.0000000000
     29317      1673  TIP3      OH2            18.4100870831      -12.9896094946       30.8696643978  TIP3      1473            0.0000000000
     29318      1673  TIP3      H1             18.9826186072      -13.3366783854       30.1619470958  TIP3      1473            0.0000000000
     29319      1673  TIP3      H2             18.6580661391      -12.0351269068       30.8164606149  TIP3      1473            0.0000000000
     29320      1674  TIP3      OH2            36.1777907619      -17.0172880532       37.1363238434  TIP3      1474            0.0000000000
     29321      1674  TIP3      H1             35.4206044460      -16.4464099500       37.4263493091  TIP3      1474            0.0000000000
     29322      1674  TIP3      H2             35.8965832350      -17.1717346809       36.2154693961  TIP3      1474            0.0000000000
     29323      1675  TIP3      OH2            19.0366224123      -17.0032377453       24.4641621404  TIP3      1475            0.0000000000
     29324      1675  TIP3      H1             18.0851683881      -17.1274066948       24.4030712785  TIP3      1475            0.0000000000
     29325      1675  TIP3      H2             19.1804780885      -16.1411540668       24.0366247630  TIP3      1475            0.0000000000
     29326      1676  TIP3      OH2            33.4527515025       -2.1742694401       26.7747698276  TIP3      1476            0.0000000000
     29327      1676  TIP3      H1             34.0675405404       -2.3055474064       26.0293558732  TIP3      1476            0.0000000000
     29328      1676  TIP3      H2             34.0507839490       -1.8547172408       27.4567868139  TIP3      1476            0.0000000000
     29329      1677  TIP3      OH2            18.7186636333      -18.3213029274       33.0955407879  TIP3      1477            0.0000000000
     29330      1677  TIP3      H1             18.1130798446      -18.6029923103       33.8045995423  TIP3      1477            0.0000000000
     29331      1677  TIP3      H2             18.2222169546      -17.6127633172       32.6583692788  TIP3      1477            0.0000000000
     29332      1678  TIP3      OH2            20.9025875734       -5.1602779056       37.0022326027  TIP3      1478            0.0000000000
     29333      1678  TIP3      H1             20.0661372406       -4.8587712428       36.6154077792  TIP3      1478            0.0000000000
     29334      1678  TIP3      H2             20.6937570267       -5.3110000910       37.9214410215  TIP3      1478            0.0000000000
     29335      1679  TIP3      OH2            23.8836367660       -3.3894468937       33.9313198562  TIP3      1479            0.0000000000
     29336      1679  TIP3      H1             23.8706404114       -2.5411521842       33.4355427129  TIP3      1479            0.0000000000
     29337      1679  TIP3      H2             24.8226510511       -3.6422856388       33.8133640049  TIP3      1479            0.0000000000
     29338      1680  TIP3      OH2            27.8994726050       -2.3802648702       36.3726068180  TIP3      1480            0.0000000000
     29339      1680  TIP3      H1             28.0353792419       -2.6877170536       37.2928380333  TIP3      1480            0.0000000000
     29340      1680  TIP3      H2             28.8054551286       -2.0791564888       36.1391411247  TIP3      1480            0.0000000000
     29341      1681  TIP3      OH2            30.2400827542       -1.0003724368       35.9169961500  TIP3      1481            0.0000000000
     29342      1681  TIP3      H1             31.0438801371       -1.3796922903       35.5432254991  TIP3      1481            0.0000000000
     29343      1681  TIP3      H2             30.5566580883       -0.6481800988       36.7744583517  TIP3      1481            0.0000000000
     29344      1682  TIP3      OH2            35.1996975881      -18.8175705098       34.9535797920  TIP3      1482            0.0000000000
     29345      1682  TIP3      H1             34.4258613937      -18.3747263682       34.5680195748  TIP3      1482            0.0000000000
     29346      1682  TIP3      H2             35.2111345796      -19.6866263188       34.4965053194  TIP3      1482            0.0000000000
     29347      1683  TIP3      OH2            21.2036439673       -0.6504272982       33.3680174945  TIP3      1483            0.0000000000
     29348      1683  TIP3      H1             20.3402887650       -0.2460091501       33.1210421035  TIP3      1483            0.0000000000
     29349      1683  TIP3      H2             21.1052613778       -0.6918893799       34.3286191624  TIP3      1483            0.0000000000
     29350      1684  TIP3      OH2            23.6832139749       -1.0916855400       32.5749757143  TIP3      1484            0.0000000000
     29351      1684  TIP3      H1             22.7267301722       -0.9641125551       32.8049467574  TIP3      1484            0.0000000000
     29352      1684  TIP3      H2             23.7402096209       -0.4957682060       31.8091152831  TIP3      1484            0.0000000000
     29353      1685  TIP3      OH2            28.3757977873       -1.5756970068       31.7481620551  TIP3      1485            0.0000000000
     29354      1685  TIP3      H1             27.8373321708       -1.2386894692       31.0155648485  TIP3      1485            0.0000000000
     29355      1685  TIP3      H2             28.4929202307       -0.7678258191       32.2978843236  TIP3      1485            0.0000000000
     29356      1686  TIP3      OH2            30.2502197576       -2.8431832233       33.2774132426  TIP3      1486            0.0000000000
     29357      1686  TIP3      H1             29.5600004488       -2.5944899238       32.6103656587  TIP3      1486            0.0000000000
     29358      1686  TIP3      H2             30.9522740510       -2.2179028471       33.0325969559  TIP3      1486            0.0000000000
     29359      1687  TIP3      OH2            32.9397477147       -1.4611440768       32.8021339114  TIP3      1487            0.0000000000
     29360      1687  TIP3      H1             32.9045352458       -0.5511370754       32.4657860110  TIP3      1487            0.0000000000
     29361      1687  TIP3      H2             33.3320483550       -1.9319099084       32.0307761147  TIP3      1487            0.0000000000
     29362      1688  TIP3      OH2            20.8121948332       -1.9352152173       30.6208981504  TIP3      1488            0.0000000000
     29363      1688  TIP3      H1             20.5676867584       -2.5972892287       31.3063221719  TIP3      1488            0.0000000000
     29364      1688  TIP3      H2             21.6186161371       -2.3366063353       30.2243666297  TIP3      1488            0.0000000000
     29365      1689  TIP3      OH2            22.9730140173       -2.6952541306       29.1905797619  TIP3      1489            0.0000000000
     29366      1689  TIP3      H1             22.5974136072       -3.5802898495       29.3629845882  TIP3      1489            0.0000000000
     29367      1689  TIP3      H2             23.8969214640       -2.8614744384       29.4900713295  TIP3      1489            0.0000000000
     29368      1690  TIP3      OH2            25.4059008844       -3.4265116379       30.1430627390  TIP3      1490            0.0000000000
     29369      1690  TIP3      H1             25.6704360031       -4.3702318281       30.0486203385  TIP3      1490            0.0000000000
     29370      1690  TIP3      H2             25.4034567686       -3.3464062836       31.1092342482  TIP3      1490            0.0000000000
     29371      1691  TIP3      OH2            28.4492207057      -17.5762184729       29.0606393342  TIP3      1491            0.0000000000
     29372      1691  TIP3      H1             27.6505955234      -18.0439941512       29.4013916060  TIP3      1491            0.0000000000
     29373      1691  TIP3      H2             28.8803097263      -18.2922380452       28.5764075894  TIP3      1491            0.0000000000
     29374      1692  TIP3      OH2            33.9486984261      -19.2437813886       29.0996158819  TIP3      1492            0.0000000000
     29375      1692  TIP3      H1             34.2893725766      -18.5280753778       28.5311222784  TIP3      1492            0.0000000000
     29376      1692  TIP3      H2             32.9947923733      -19.1400219982       28.9127862850  TIP3      1492            0.0000000000
     29377      1693  TIP3      OH2            35.3470424817      -17.9542716408       26.7985525453  TIP3      1493            0.0000000000
     29378      1693  TIP3      H1             36.0471653469      -18.6403505888       26.6452055050  TIP3      1493            0.0000000000
     29379      1693  TIP3      H2             35.8368383889      -17.4193264995       27.4716028497  TIP3      1493            0.0000000000
     29380      1694  TIP3      OH2            21.5618061785      -18.7658190562       26.9475059741  TIP3      1494            0.0000000000
     29381      1694  TIP3      H1             20.7137787453      -18.8676932142       26.4807299174  TIP3      1494            0.0000000000
     29382      1694  TIP3      H2             21.9930148115      -19.6369409831       26.7753626521  TIP3      1494            0.0000000000
     29383      1695  TIP3      OH2            20.5613092526      -18.3598478507       22.6446836791  TIP3      1495            0.0000000000
     29384      1695  TIP3      H1             20.5991055880      -17.4003771691       22.8060926980  TIP3      1495            0.0000000000
     29385      1695  TIP3      H2             19.8501590222      -18.5731904114       23.2707396763  TIP3      1495            0.0000000000
     29386      1696  TIP3      OH2            25.5501106476      -19.0389320627       26.8845355655  TIP3      1496            0.0000000000
     29387      1696  TIP3      H1             26.3411684980      -18.6799013748       26.4743786500  TIP3      1496            0.0000000000
     29388      1696  TIP3      H2             25.7337680564      -18.8519288955       27.8224743672  TIP3      1496            0.0000000000
     29389      1697  TIP3      OH2            31.4737027400      -18.4653124182       28.1588898577  TIP3      1497            0.0000000000
     29390      1697  TIP3      H1             31.3892034681      -18.7525370054       27.2412978255  TIP3      1497            0.0000000000
     29391      1697  TIP3      H2             30.7571722930      -19.0044287080       28.5667020231  TIP3      1497            0.0000000000
     29392      1698  TIP3      OH2            31.8870702393      -18.3820934668       24.1915135088  TIP3      1498            0.0000000000
     29393      1698  TIP3      H1             31.0528167530      -17.9434533548       23.9696184140  TIP3      1498            0.0000000000
     29394      1698  TIP3      H2             31.7230728925      -19.3021534985       23.9105085887  TIP3      1498            0.0000000000
     29395      1699  TIP3      OH2            19.7837176779       -2.8576369150       23.7156142412  TIP3      1499            0.0000000000
     29396      1699  TIP3      H1             18.9971953764       -2.9536599298       23.1379786449  TIP3      1499            0.0000000000
     29397      1699  TIP3      H2             20.0661913438       -1.9695135417       23.4522279034  TIP3      1499            0.0000000000
     29398      1700  TIP3      OH2            35.2369259051       -2.2680098064       24.8109423262  TIP3      1500            0.0000000000
     29399      1700  TIP3      H1             35.3764271262       -3.1352436693       24.3737755543  TIP3      1500            0.0000000000
     29400      1700  TIP3      H2             35.0722493763       -1.6769542293       24.0579370569  TIP3      1500            0.0000000000
     29401      1701  TIP3      OH2            20.8258669763      -18.0300399376       36.5082639119  TIP3      1501            0.0000000000
     29402      1701  TIP3      H1             20.3611866356      -18.8846796359       36.5275104302  TIP3      1501            0.0000000000
     29403      1701  TIP3      H2             21.6181188913      -18.1850283212       37.0768802614  TIP3      1501            0.0000000000
     29404      1702  TIP3      OH2            22.8309192814      -18.8211688260       38.3060591449  TIP3      1502            0.0000000000
     29405      1702  TIP3      H1             23.7707843546      -18.9916152888       38.0932325672  TIP3      1502            0.0000000000
     29406      1702  TIP3      H2             22.5628871506      -19.7202771119       38.5874736885  TIP3      1502            0.0000000000
     29407      1703  TIP3      OH2            21.2694127274       -1.6404822997       20.7046879840  TIP3      1503            0.0000000000
     29408      1703  TIP3      H1             20.9398462422       -1.0520995441       21.4095544807  TIP3      1503            0.0000000000
     29409      1703  TIP3      H2             22.0023162757       -2.1032822263       21.1209035900  TIP3      1503            0.0000000000
     29410      1704  TIP3      OH2            31.5122687348      -19.4048437005       38.4029206878  TIP3      1504            0.0000000000
     29411      1704  TIP3      H1             31.5441849242      -19.9305096203       39.2434416322  TIP3      1504            0.0000000000
     29412      1704  TIP3      H2             32.3668815104      -19.6785589846       38.0111035493  TIP3      1504            0.0000000000
     29413      1705  TIP3      OH2            34.5183413515       -3.9377863624       36.6148634895  TIP3      1505            0.0000000000
     29414      1705  TIP3      H1             33.8418994013       -3.8255234155       35.9063633062  TIP3      1505            0.0000000000
     29415      1705  TIP3      H2             34.5399401933       -3.0324820029       36.9634724388  TIP3      1505            0.0000000000
     29416      1706  TIP3      OH2            37.3832066879      -13.2041891232       25.6050825403  TIP3      1506            0.0000000000
     29417      1706  TIP3      H1             37.1255642534      -12.2860346959       25.8198116424  TIP3      1506            0.0000000000
     29418      1706  TIP3      H2             36.9682676340      -13.2890348244       24.7282269072  TIP3      1506            0.0000000000
     29419      1707  TIP3      OH2            37.4532641446       -8.2504811267       33.5439053486  TIP3      1507            0.0000000000
     29420      1707  TIP3      H1             36.8975522816       -8.3321139385       32.7430482714  TIP3      1507            0.0000000000
     29421      1707  TIP3      H2             37.5752278414       -9.1836099427       33.8238229278  TIP3      1507            0.0000000000
     29422      1708  TIP3      OH2            37.1598674546       -5.3323013159       30.3643211187  TIP3      1508            0.0000000000
     29423      1708  TIP3      H1             38.1037356338       -5.3663146173       30.0847306104  TIP3      1508            0.0000000000
     29424      1708  TIP3      H2             37.1321101622       -4.4194841436       30.7106189948  TIP3      1508            0.0000000000
     29425      1709  TIP3      OH2            37.0468265937      -15.9726107858       27.8089182425  TIP3      1509            0.0000000000
     29426      1709  TIP3      H1             37.0325020058      -15.0031968326       27.9242803723  TIP3      1509            0.0000000000
     29427      1709  TIP3      H2             37.1779847494      -16.0621464396       26.8416197932  TIP3      1509            0.0000000000
     29428      1710  TIP3      OH2            37.5372861090      -10.7319262140       34.4658074284  TIP3      1510            0.0000000000
     29429      1710  TIP3      H1             37.3835621583      -11.3987211570       35.1624414950  TIP3      1510            0.0000000000
     29430      1710  TIP3      H2             36.7958552946      -10.9319444741       33.8527799288  TIP3      1510            0.0000000000
     29431      1711  TIP3      OH2            38.0014145914       -8.8026116494       37.6638281532  TIP3      1511            0.0000000000
     29432      1711  TIP3      H1             37.5901980213       -9.6628376593       37.8387900994  TIP3      1511            0.0000000000
     29433      1711  TIP3      H2             37.3527411124       -8.3426822047       37.0788267905  TIP3      1511            0.0000000000
     29434      1712  TIP3      OH2            36.7533277810       -0.9755331030       26.5612527526  TIP3      1512            0.0000000000
     29435      1712  TIP3      H1             36.1913346114       -1.4131622369       25.8807116842  TIP3      1512            0.0000000000
     29436      1712  TIP3      H2             36.9117201367       -1.7517722437       27.1523616565  TIP3      1512            0.0000000000
     29437      1713  TIP3      OH2            37.2829699763       -3.1160460935       28.1088580034  TIP3      1513            0.0000000000
     29438      1713  TIP3      H1             37.0548883116       -4.0427814143       28.2644115318  TIP3      1513            0.0000000000
     29439      1713  TIP3      H2             38.0220402800       -2.9998248245       28.7199901281  TIP3      1513            0.0000000000
     29440      1714  TIP3      OH2            37.9174250609      -10.3912769738       30.8619527829  TIP3      1514            0.0000000000
     29441      1714  TIP3      H1             37.7991370428      -10.1663535505       29.9245192694  TIP3      1514            0.0000000000
     29442      1714  TIP3      H2             38.7205709053       -9.8462666906       31.0485113779  TIP3      1514            0.0000000000
     29443      1715  TIP3      OH2            37.0638556489      -14.5237589242       37.0725515864  TIP3      1515            0.0000000000
     29444      1715  TIP3      H1             38.0416062141      -14.4740817575       37.0360708463  TIP3      1515            0.0000000000
     29445      1715  TIP3      H2             36.8854763154      -15.4436010625       37.3490839358  TIP3      1515            0.0000000000
     29446      1716  TIP3      OH2            36.6563857013      -13.3256363309       30.4216505952  TIP3      1516            0.0000000000
     29447      1716  TIP3      H1             37.6362572556      -13.4143776738       30.5433159967  TIP3      1516            0.0000000000
     29448      1716  TIP3      H2             36.5632002434      -12.3923823259       30.6545365617  TIP3      1516            0.0000000000
     29449      1717  TIP3      OH2            37.5256550540      -16.5284709638       25.1138322430  TIP3      1517            0.0000000000
     29450      1717  TIP3      H1             36.6133840385      -16.5686372637       24.7620697658  TIP3      1517            0.0000000000
     29451      1717  TIP3      H2             38.0473011870      -16.5744987978       24.2963509671  TIP3      1517            0.0000000000
     29452      1718  TIP3      OH2            36.5128159015      -18.4788103556       32.5657209194  TIP3      1518            0.0000000000
     29453      1718  TIP3      H1             36.3828721277      -18.4871224475       33.5347595472  TIP3      1518            0.0000000000
     29454      1718  TIP3      H2             36.1779897686      -17.5914191728       32.3337646496  TIP3      1518            0.0000000000
     29455      1719  TIP3      OH2           -26.1540590923        9.4194742419       26.7412231688  TIP3      1519            0.0000000000
     29456      1719  TIP3      H1            -26.2803981517       10.3696550156       26.5547559126  TIP3      1519            0.0000000000
     29457      1719  TIP3      H2            -26.8370078407        9.0705268444       26.1427307687  TIP3      1519            0.0000000000
     29458      1720  TIP3      OH2           -27.2357649596        8.3439780447       30.2742472998  TIP3      1520            0.0000000000
     29459      1720  TIP3      H1            -27.1630981382        7.9453140915       31.1758333403  TIP3      1520            0.0000000000
     29460      1720  TIP3      H2            -27.9036652437        7.7532694172       29.8821864736  TIP3      1520            0.0000000000
     29461      1721  TIP3      OH2           -34.9698023742        8.3299026151       31.9782988819  TIP3      1521            0.0000000000
     29462      1721  TIP3      H1            -35.1749274564        7.4153051296       32.2478747811  TIP3      1521            0.0000000000
     29463      1721  TIP3      H2            -34.4262934114        8.6107068575       32.7451973694  TIP3      1521            0.0000000000
     29464      1722  TIP3      OH2           -23.8831011701       11.3702825783       28.8717761693  TIP3      1522            0.0000000000
     29465      1722  TIP3      H1            -24.3081515048       10.7066063389       29.4330394088  TIP3      1522            0.0000000000
     29466      1722  TIP3      H2            -23.7816860544       12.1127093787       29.4965171972  TIP3      1522            0.0000000000
     29467      1723  TIP3      OH2           -34.8193224268       12.7805405429       30.3170688775  TIP3      1523            0.0000000000
     29468      1723  TIP3      H1            -35.1023153656       11.8772576895       30.0775683205  TIP3      1523            0.0000000000
     29469      1723  TIP3      H2            -33.8618067119       12.7092943813       30.2382822700  TIP3      1523            0.0000000000
     29470      1724  TIP3      OH2           -36.8579524846        6.3038102165       25.6797904167  TIP3      1524            0.0000000000
     29471      1724  TIP3      H1            -37.5261028668        6.9155891134       25.3600345004  TIP3      1524            0.0000000000
     29472      1724  TIP3      H2            -37.3737650588        5.4785157031       25.7101064311  TIP3      1524            0.0000000000
     29473      1725  TIP3      OH2           -36.8738182683        8.2543670415       28.3553102853  TIP3      1525            0.0000000000
     29474      1725  TIP3      H1            -36.5556058921        7.4228793153       27.9735114703  TIP3      1525            0.0000000000
     29475      1725  TIP3      H2            -36.8442707794        8.8757721300       27.6195515063  TIP3      1525            0.0000000000
     29476      1726  TIP3      OH2           -26.6151826726       16.5848652835       28.5267216691  TIP3      1526            0.0000000000
     29477      1726  TIP3      H1            -25.7771949854       16.1256870968       28.2799374044  TIP3      1526            0.0000000000
     29478      1726  TIP3      H2            -27.0105619062       15.8568322092       29.0243898832  TIP3      1526            0.0000000000
     29479      1727  TIP3      OH2           -29.1571204472       10.8325231985       31.0220500023  TIP3      1527            0.0000000000
     29480      1727  TIP3      H1            -28.7278660815       10.3628877631       30.2885166769  TIP3      1527            0.0000000000
     29481      1727  TIP3      H2            -28.3418954955       11.1523479729       31.4846120340  TIP3      1527            0.0000000000
     29482      1728  TIP3      OH2           -20.5007108641        2.5267871159       30.9057736090  TIP3      1528            0.0000000000
     29483      1728  TIP3      H1            -20.4846783535        3.0967682147       31.7052518686  TIP3      1528            0.0000000000
     29484      1728  TIP3      H2            -19.6300493432        2.7699281439       30.5347721681  TIP3      1528            0.0000000000
     29485      1729  TIP3      OH2           -25.4926492470        5.4658767908       31.2185778648  TIP3      1529            0.0000000000
     29486      1729  TIP3      H1            -25.3038128355        4.5187065037       31.3664755421  TIP3      1529            0.0000000000
     29487      1729  TIP3      H2            -25.8719946959        5.4342083116       30.3168939975  TIP3      1529            0.0000000000
     29488      1730  TIP3      OH2           -25.2343934380        3.7017214558       26.7274333721  TIP3      1530            0.0000000000
     29489      1730  TIP3      H1            -24.6880222034        3.3283661443       27.4507038919  TIP3      1530            0.0000000000
     29490      1730  TIP3      H2            -24.5942093893        4.3127186994       26.3291397180  TIP3      1530            0.0000000000
     29491      1731  TIP3      OH2           -20.3688696993        3.8461086562       33.4347519579  TIP3      1531            0.0000000000
     29492      1731  TIP3      H1            -20.6987433839        4.7258533285       33.1278960365  TIP3      1531            0.0000000000
     29493      1731  TIP3      H2            -20.1108377951        4.0788471858       34.3379889792  TIP3      1531            0.0000000000
     29494      1732  TIP3      OH2           -33.7010040968        2.4992362351       32.2867815576  TIP3      1532            0.0000000000
     29495      1732  TIP3      H1            -34.0996727637        3.0215288506       31.5631094974  TIP3      1532            0.0000000000
     29496      1732  TIP3      H2            -34.2415200254        2.8045788902       33.0469215576  TIP3      1532            0.0000000000
     29497      1733  TIP3      OH2           -26.8009352530       12.0400748436       25.9261279469  TIP3      1533            0.0000000000
     29498      1733  TIP3      H1            -27.0608472291       12.1455994967       24.9844438555  TIP3      1533            0.0000000000
     29499      1733  TIP3      H2            -26.8947712247       12.9677497033       26.2430351555  TIP3      1533            0.0000000000
     29500      1734  TIP3      OH2           -31.2730800872       10.2179612424       32.6130615373  TIP3      1534            0.0000000000
     29501      1734  TIP3      H1            -31.8671891260       10.9695330238       32.8224981249  TIP3      1534            0.0000000000
     29502      1734  TIP3      H2            -30.6070998034       10.6435491695       32.0309067253  TIP3      1534            0.0000000000
     29503      1735  TIP3      OH2           -23.2574138631        3.3237229295       28.6438276195  TIP3      1535            0.0000000000
     29504      1735  TIP3      H1            -23.3739803896        2.4633881391       29.0557241599  TIP3      1535            0.0000000000
     29505      1735  TIP3      H2            -22.3839216196        3.6005196027       28.9748361040  TIP3      1535            0.0000000000
     29506      1736  TIP3      OH2           -34.3800758915        4.2818520610       30.2014572206  TIP3      1536            0.0000000000
     29507      1736  TIP3      H1            -33.8381757290        4.9449689915       30.6927950403  TIP3      1536            0.0000000000
     29508      1736  TIP3      H2            -33.8144140824        4.0809244957       29.4383759740  TIP3      1536            0.0000000000
     29509      1737  TIP3      OH2           -32.8131621531       12.4711055984       33.2151807274  TIP3      1537            0.0000000000
     29510      1737  TIP3      H1            -33.0014347025       13.3550507046       32.8488735643  TIP3      1537            0.0000000000
     29511      1737  TIP3      H2            -33.7150305785       12.2285653072       33.5088637110  TIP3      1537            0.0000000000
     29512      1738  TIP3      OH2           -37.1094822940       11.8416428858       24.2106727471  TIP3      1538            0.0000000000
     29513      1738  TIP3      H1            -37.3565816186       12.0500518675       23.2820555794  TIP3      1538            0.0000000000
     29514      1738  TIP3      H2            -36.6741341484       12.6462086192       24.5383964641  TIP3      1538            0.0000000000
     29515      1739  TIP3      OH2           -23.2760298089       13.4416268842       30.7565367946  TIP3      1539            0.0000000000
     29516      1739  TIP3      H1            -24.2266001116       13.5774854441       30.9500777412  TIP3      1539            0.0000000000
     29517      1739  TIP3      H2            -23.1067527098       14.3162672271       30.3581010624  TIP3      1539            0.0000000000
     29518      1740  TIP3      OH2           -23.4397423391        1.8873888486       31.9154689790  TIP3      1540            0.0000000000
     29519      1740  TIP3      H1            -24.2674369202        2.1892712382       31.4715528570  TIP3      1540            0.0000000000
     29520      1740  TIP3      H2            -22.7849725710        2.1674109563       31.2481769273  TIP3      1540            0.0000000000
     29521      1741  TIP3      OH2           -30.1590970626       -0.3241073412       30.1791043840  TIP3      1541            0.0000000000
     29522      1741  TIP3      H1            -30.4221956397       -0.8139960900       29.3866502646  TIP3      1541            0.0000000000
     29523      1741  TIP3      H2            -30.9177897045        0.2989422644       30.2423784203  TIP3      1541            0.0000000000
     29524      1742  TIP3      OH2           -24.6331255683       15.1277459383       27.6340472928  TIP3      1542            0.0000000000
     29525      1742  TIP3      H1            -24.7529547699       14.5188216093       26.8801193664  TIP3      1542            0.0000000000
     29526      1742  TIP3      H2            -23.9874064291       15.7624750138       27.2511052197  TIP3      1542            0.0000000000
     29527      1743  TIP3      OH2           -23.6484038470       13.1543656378       25.9078245840  TIP3      1543            0.0000000000
     29528      1743  TIP3      H1            -23.9181497125       12.5131660754       25.2261917328  TIP3      1543            0.0000000000
     29529      1743  TIP3      H2            -23.8821800641       12.6429070724       26.7073038105  TIP3      1543            0.0000000000
     29530      1744  TIP3      OH2           -22.2803358300       11.7586280855       34.6401502444  TIP3      1544            0.0000000000
     29531      1744  TIP3      H1            -22.0956501846       11.0330551357       33.9970539927  TIP3      1544            0.0000000000
     29532      1744  TIP3      H2            -22.2124405679       12.5336970795       34.0492681694  TIP3      1544            0.0000000000
     29533      1745  TIP3      OH2           -27.4396770220        8.8165832503       24.2256052073  TIP3      1545            0.0000000000
     29534      1745  TIP3      H1            -27.9660916262        9.6170444290       24.0289372906  TIP3      1545            0.0000000000
     29535      1745  TIP3      H2            -27.2163487150        8.5187586768       23.3154913562  TIP3      1545            0.0000000000
     29536      1746  TIP3      OH2           -20.1663815401        8.1747282475       32.4335397133  TIP3      1546            0.0000000000
     29537      1746  TIP3      H1            -20.8453066931        8.8727788002       32.5041524001  TIP3      1546            0.0000000000
     29538      1746  TIP3      H2            -19.5861840139        8.5831950140       31.7566767444  TIP3      1546            0.0000000000
     29539      1747  TIP3      OH2           -24.0613213012        8.3933132829       25.1523972127  TIP3      1547            0.0000000000
     29540      1747  TIP3      H1            -24.7373771606        8.7986268005       25.7352408374  TIP3      1547            0.0000000000
     29541      1747  TIP3      H2            -23.3956356692        8.1127164782       25.8129784663  TIP3      1547            0.0000000000
     29542      1748  TIP3      OH2           -24.0430293997        7.0779449647       34.3057443090  TIP3      1548            0.0000000000
     29543      1748  TIP3      H1            -24.2991744291        7.9105915487       34.7246931532  TIP3      1548            0.0000000000
     29544      1748  TIP3      H2            -24.7089140849        7.0485638917       33.5945604840  TIP3      1548            0.0000000000
     29545      1749  TIP3      OH2           -31.3591675753       12.5526197213       29.6741739612  TIP3      1549            0.0000000000
     29546      1749  TIP3      H1            -31.0543419606       12.5990092010       28.7588112914  TIP3      1549            0.0000000000
     29547      1749  TIP3      H2            -30.5509824653       12.3353547008       30.1789558097  TIP3      1549            0.0000000000
     29548      1750  TIP3      OH2           -31.9431271021        8.3553674143       30.8009140134  TIP3      1550            0.0000000000
     29549      1750  TIP3      H1            -30.9942200636        8.3610303990       30.6095020698  TIP3      1550            0.0000000000
     29550      1750  TIP3      H2            -31.9842423796        8.9810039942       31.5518153890  TIP3      1550            0.0000000000
     29551      1751  TIP3      OH2           -25.8127207999       13.9785271806       31.5005892610  TIP3      1551            0.0000000000
     29552      1751  TIP3      H1            -26.0611162126       14.7404265941       32.0433396443  TIP3      1551            0.0000000000
     29553      1751  TIP3      H2            -26.2789889469       13.2537997000       31.9575434473  TIP3      1551            0.0000000000
     29554      1752  TIP3      OH2           -31.3453200716       12.6933680044       35.4281398682  TIP3      1552            0.0000000000
     29555      1752  TIP3      H1            -32.0454836314       13.1400571465       35.9554856288  TIP3      1552            0.0000000000
     29556      1752  TIP3      H2            -31.8377105909       12.5749945055       34.5802410940  TIP3      1552            0.0000000000
     29557      1753  TIP3      OH2           -33.9039695585        8.8660688757       34.3061626981  TIP3      1553            0.0000000000
     29558      1753  TIP3      H1            -33.9141550578        9.7068792426       34.8155252857  TIP3      1553            0.0000000000
     29559      1753  TIP3      H2            -34.8417739438        8.6055384439       34.4500780384  TIP3      1553            0.0000000000
     29560      1754  TIP3      OH2           -27.3055915307       14.5291173818       26.5946590275  TIP3      1554            0.0000000000
     29561      1754  TIP3      H1            -27.0696456414       15.4546044665       26.7952203988  TIP3      1554            0.0000000000
     29562      1754  TIP3      H2            -28.1677486660       14.6351446924       26.1862854278  TIP3      1554            0.0000000000
     29563      1755  TIP3      OH2           -33.1502772167       14.4886757067       36.2831455132  TIP3      1555            0.0000000000
     29564      1755  TIP3      H1            -33.2617306849       14.6323092065       35.3181389778  TIP3      1555            0.0000000000
     29565      1755  TIP3      H2            -34.0680971164       14.3257846875       36.5705483797  TIP3      1555            0.0000000000
     29566      1756  TIP3      OH2           -21.5730456419       -0.4953872909       22.9959117138  TIP3      1556            0.0000000000
     29567      1756  TIP3      H1            -22.5220213436       -0.3699394711       23.2016082217  TIP3      1556            0.0000000000
     29568      1756  TIP3      H2            -21.2628869902        0.4289691824       23.0984720834  TIP3      1556            0.0000000000
     29569      1757  TIP3      OH2           -36.6743727927       10.6973192483       33.7855126506  TIP3      1557            0.0000000000
     29570      1757  TIP3      H1            -37.5856473776       10.7869679705       33.4474247276  TIP3      1557            0.0000000000
     29571      1757  TIP3      H2            -36.4874558967        9.7558907936       33.6022551306  TIP3      1557            0.0000000000
     29572      1758  TIP3      OH2           -37.1538265326       14.0184681379       30.0097074285  TIP3      1558            0.0000000000
     29573      1758  TIP3      H1            -36.4008615528       13.3910248665       30.0950762948  TIP3      1558            0.0000000000
     29574      1758  TIP3      H2            -36.9747127818       14.5870946604       30.7802122153  TIP3      1558            0.0000000000
     29575      1759  TIP3      OH2           -19.6259692361       14.0115380870       36.3597801966  TIP3      1559            0.0000000000
     29576      1759  TIP3      H1            -19.7347806360       13.0402428907       36.2669389961  TIP3      1559            0.0000000000
     29577      1759  TIP3      H2            -20.4920842301       14.1998292715       36.7795887876  TIP3      1559            0.0000000000
     29578      1760  TIP3      OH2           -28.9279665677       13.7770488534       35.3406770081  TIP3      1560            0.0000000000
     29579      1760  TIP3      H1            -28.8581151665       14.5344603239       35.9466147066  TIP3      1560            0.0000000000
     29580      1760  TIP3      H2            -29.8489586634       13.4512128808       35.4685520670  TIP3      1560            0.0000000000
     29581      1761  TIP3      OH2           -28.0619199286       17.6328582973       24.0333883633  TIP3      1561            0.0000000000
     29582      1761  TIP3      H1            -28.7235676972       17.9460936131       23.3939540613  TIP3      1561            0.0000000000
     29583      1761  TIP3      H2            -28.1309434999       18.3040211656       24.7374985271  TIP3      1561            0.0000000000
     29584      1762  TIP3      OH2           -25.4743419366       16.6562239943       24.8022136575  TIP3      1562            0.0000000000
     29585      1762  TIP3      H1            -26.2781870097       17.2000519241       24.8119115842  TIP3      1562            0.0000000000
     29586      1762  TIP3      H2            -25.7822396659       15.8618107538       24.3448087889  TIP3      1562            0.0000000000
     29587      1763  TIP3      OH2           -22.6550863689        5.6334204566       36.5003516809  TIP3      1563            0.0000000000
     29588      1763  TIP3      H1            -23.2345596340        6.0042369448       35.8013784480  TIP3      1563            0.0000000000
     29589      1763  TIP3      H2            -22.6912797913        4.6834724356       36.2980147250  TIP3      1563            0.0000000000
     29590      1764  TIP3      OH2           -35.3327328897       12.8163166147       34.4211495289  TIP3      1564            0.0000000000
     29591      1764  TIP3      H1            -35.2434669034       12.5155820676       35.3343714450  TIP3      1564            0.0000000000
     29592      1764  TIP3      H2            -35.9163547547       12.0923797985       34.0831009167  TIP3      1564            0.0000000000
     29593      1765  TIP3      OH2           -32.4877386078        1.0478279221       30.2969406250  TIP3      1565            0.0000000000
     29594      1765  TIP3      H1            -33.3835255069        0.9151225815       29.9153806409  TIP3      1565            0.0000000000
     29595      1765  TIP3      H2            -32.7351353141        1.4877510027       31.1300534393  TIP3      1565            0.0000000000
     29596      1766  TIP3      OH2           -27.9586014877        0.4883187178       33.7052200888  TIP3      1566            0.0000000000
     29597      1766  TIP3      H1            -27.5632249811       -0.0072868095       34.4585609511  TIP3      1566            0.0000000000
     29598      1766  TIP3      H2            -28.9175961289        0.2983462501       33.8140997176  TIP3      1566            0.0000000000
     29599      1767  TIP3      OH2           -25.1430940063        4.4933369900       35.0329194999  TIP3      1567            0.0000000000
     29600      1767  TIP3      H1            -25.7221854771        4.0713433300       35.7157730301  TIP3      1567            0.0000000000
     29601      1767  TIP3      H2            -25.6044819122        5.3396357252       34.8819185220  TIP3      1567            0.0000000000
     29602      1768  TIP3      OH2           -32.5148893692        5.8235189574       31.5217301145  TIP3      1568            0.0000000000
     29603      1768  TIP3      H1            -33.2230056480        5.8573193320       32.1980019337  TIP3      1568            0.0000000000
     29604      1768  TIP3      H2            -32.2934187677        6.7679487899       31.4077696559  TIP3      1568            0.0000000000
     29605      1769  TIP3      OH2           -27.0726479101        6.3067094118       24.8443895559  TIP3      1569            0.0000000000
     29606      1769  TIP3      H1            -27.0968744116        7.2933465313       24.7581726123  TIP3      1569            0.0000000000
     29607      1769  TIP3      H2            -26.2122500087        6.1207235973       24.4099889756  TIP3      1569            0.0000000000
     29608      1770  TIP3      OH2           -27.9981283359        6.6171370072       36.7522464180  TIP3      1570            0.0000000000
     29609      1770  TIP3      H1            -28.4462695987        5.8133561273       37.1072529218  TIP3      1570            0.0000000000
     29610      1770  TIP3      H2            -27.2871078388        6.6888981484       37.4155272200  TIP3      1570            0.0000000000
     29611      1771  TIP3      OH2           -26.1981876802        5.9080637146       28.4667957251  TIP3      1571            0.0000000000
     29612      1771  TIP3      H1            -26.0144994551        6.6726995742       27.8893285054  TIP3      1571            0.0000000000
     29613      1771  TIP3      H2            -26.1497936423        5.1601549446       27.8439913669  TIP3      1571            0.0000000000
     29614      1772  TIP3      OH2           -34.6305140254        5.5896267120       33.1251747097  TIP3      1572            0.0000000000
     29615      1772  TIP3      H1            -34.2975683812        5.9859752437       33.9426748313  TIP3      1572            0.0000000000
     29616      1772  TIP3      H2            -35.1386872261        4.8145296336       33.4601619996  TIP3      1572            0.0000000000
     29617      1773  TIP3      OH2           -37.4005739632        3.5930603610       27.6302378009  TIP3      1573            0.0000000000
     29618      1773  TIP3      H1            -37.0938213475        2.9483044138       28.2849826643  TIP3      1573            0.0000000000
     29619      1773  TIP3      H2            -37.1895384491        3.1399158100       26.7776546814  TIP3      1573            0.0000000000
     29620      1774  TIP3      OH2           -37.3766479803        4.1427122695       22.8487520492  TIP3      1574            0.0000000000
     29621      1774  TIP3      H1            -36.7494935026        4.2429443272       22.1027885421  TIP3      1574            0.0000000000
     29622      1774  TIP3      H2            -36.8032894479        4.4691367973       23.5610091615  TIP3      1574            0.0000000000
     29623      1775  TIP3      OH2           -26.8614085440        7.2217776967       32.6663861878  TIP3      1575            0.0000000000
     29624      1775  TIP3      H1            -26.3140346533        6.5312847520       32.2292394843  TIP3      1575            0.0000000000
     29625      1775  TIP3      H2            -27.4503500841        6.6606231684       33.2230582012  TIP3      1575            0.0000000000
     29626      1776  TIP3      OH2           -25.6001699888        2.6625682644       30.7132433628  TIP3      1576            0.0000000000
     29627      1776  TIP3      H1            -26.1831280230        2.5168409883       31.4884504672  TIP3      1576            0.0000000000
     29628      1776  TIP3      H2            -26.0367187799        2.1008625523       30.0307414814  TIP3      1576            0.0000000000
     29629      1777  TIP3      OH2           -22.6811341602       18.1635730065       37.5415453839  TIP3      1577            0.0000000000
     29630      1777  TIP3      H1            -22.5267933218       18.6773137982       36.7285731924  TIP3      1577            0.0000000000
     29631      1777  TIP3      H2            -21.9070191221       18.4236220554       38.0580571205  TIP3      1577            0.0000000000
     29632      1778  TIP3      OH2           -34.0929231802       10.8075294128       36.1607304493  TIP3      1578            0.0000000000
     29633      1778  TIP3      H1            -33.3972262035       10.8546181884       36.8329250509  TIP3      1578            0.0000000000
     29634      1778  TIP3      H2            -34.8922989557       10.7126152403       36.7003655991  TIP3      1578            0.0000000000
     29635      1779  TIP3      OH2           -28.9627215212        6.3662089537       29.4938166041  TIP3      1579            0.0000000000
     29636      1779  TIP3      H1            -28.1629465931        6.0685002058       29.0279380061  TIP3      1579            0.0000000000
     29637      1779  TIP3      H2            -29.2960746090        5.5263940835       29.8458941348  TIP3      1579            0.0000000000
     29638      1780  TIP3      OH2           -30.1592181266        4.3525155322       31.9343332379  TIP3      1580            0.0000000000
     29639      1780  TIP3      H1            -30.8548575880        5.0288502158       31.9980070471  TIP3      1580            0.0000000000
     29640      1780  TIP3      H2            -29.4206742764        4.7573173447       32.4166858932  TIP3      1580            0.0000000000
     29641      1781  TIP3      OH2           -29.4897617982       10.6236499186       23.6873009713  TIP3      1581            0.0000000000
     29642      1781  TIP3      H1            -30.1686479526        9.9962509130       23.3631283115  TIP3      1581            0.0000000000
     29643      1781  TIP3      H2            -29.9132313954       10.8722504345       24.5293322232  TIP3      1581            0.0000000000
     29644      1782  TIP3      OH2           -22.0095434506       10.1799048279       32.5456847898  TIP3      1582            0.0000000000
     29645      1782  TIP3      H1            -21.4992087352       10.7817364246       31.9527056597  TIP3      1582            0.0000000000
     29646      1782  TIP3      H2            -22.8526166455       10.1465723383       32.0606679934  TIP3      1582            0.0000000000
     29647      1783  TIP3      OH2           -25.6823840482        3.6433490435       21.6550432809  TIP3      1583            0.0000000000
     29648      1783  TIP3      H1            -26.5519703727        3.3713165239       21.9564415441  TIP3      1583            0.0000000000
     29649      1783  TIP3      H2            -25.5738336754        4.5131862566       22.0886946577  TIP3      1583            0.0000000000
     29650      1784  TIP3      OH2           -28.5259309994       11.0269510231       34.9581461574  TIP3      1584            0.0000000000
     29651      1784  TIP3      H1            -28.9496683051       10.7974471891       35.8000463455  TIP3      1584            0.0000000000
     29652      1784  TIP3      H2            -28.5947698806       12.0027232816       34.9815573799  TIP3      1584            0.0000000000
     29653      1785  TIP3      OH2           -24.8854251365        5.7161778470       23.4121849020  TIP3      1585            0.0000000000
     29654      1785  TIP3      H1            -24.1277209078        5.6415818594       24.0152990109  TIP3      1585            0.0000000000
     29655      1785  TIP3      H2            -24.7286589161        6.5762533467       22.9814329067  TIP3      1585            0.0000000000
     29656      1786  TIP3      OH2           -34.0845499809       10.2418228656       29.3592099913  TIP3      1586            0.0000000000
     29657      1786  TIP3      H1            -33.2776613237       10.6814731499       29.0556411150  TIP3      1586            0.0000000000
     29658      1786  TIP3      H2            -33.7618152627        9.5257046236       29.9304408058  TIP3      1586            0.0000000000
     29659      1787  TIP3      OH2           -27.4154092505       12.3742462733       23.2262500614  TIP3      1587            0.0000000000
     29660      1787  TIP3      H1            -27.9414147128       13.1618886271       22.9865902551  TIP3      1587            0.0000000000
     29661      1787  TIP3      H2            -28.0883603886       11.6678792590       23.2124398082  TIP3      1587            0.0000000000
     29662      1788  TIP3      OH2           -36.5236680265        7.9506762762       34.4535438359  TIP3      1588            0.0000000000
     29663      1788  TIP3      H1            -36.5839867410        7.6178195131       35.3628064328  TIP3      1588            0.0000000000
     29664      1788  TIP3      H2            -37.4733478112        7.9354210655       34.2070133140  TIP3      1588            0.0000000000
     29665      1789  TIP3      OH2           -30.4774972995        8.1250098648       36.6331164504  TIP3      1589            0.0000000000
     29666      1789  TIP3      H1            -31.0177293097        7.5358890294       36.0732083047  TIP3      1589            0.0000000000
     29667      1789  TIP3      H2            -29.6197823836        7.6511542041       36.6520803252  TIP3      1589            0.0000000000
     29668      1790  TIP3      OH2           -25.4025915997       13.4069235016       35.0459075949  TIP3      1590            0.0000000000
     29669      1790  TIP3      H1            -26.1647717294       13.6438136931       34.5120063689  TIP3      1590            0.0000000000
     29670      1790  TIP3      H2            -25.6542651913       13.8015243574       35.9140006383  TIP3      1590            0.0000000000
     29671      1791  TIP3      OH2           -20.4714504754        5.5678174197       23.9186569046  TIP3      1591            0.0000000000
     29672      1791  TIP3      H1            -20.2461039120        5.1081530115       23.0940510656  TIP3      1591            0.0000000000
     29673      1791  TIP3      H2            -20.3325836294        6.4903409348       23.5870708762  TIP3      1591            0.0000000000
     29674      1792  TIP3      OH2           -19.8583227930       11.3451558651       35.8801726225  TIP3      1592            0.0000000000
     29675      1792  TIP3      H1            -20.7646210005       11.4976260130       35.5152912038  TIP3      1592            0.0000000000
     29676      1792  TIP3      H2            -19.3342693547       11.3112339146       35.0480117980  TIP3      1592            0.0000000000
     29677      1793  TIP3      OH2           -21.8374233429       13.8621086569       23.7720236598  TIP3      1593            0.0000000000
     29678      1793  TIP3      H1            -22.2686465002       13.7965608855       24.6553771186  TIP3      1593            0.0000000000
     29679      1793  TIP3      H2            -22.3687192016       13.2427559038       23.2462980324  TIP3      1593            0.0000000000
     29680      1794  TIP3      OH2           -24.5486223692        9.3021726375       30.7626363431  TIP3      1594            0.0000000000
     29681      1794  TIP3      H1            -25.4396648203        8.9958342494       30.5064638967  TIP3      1594            0.0000000000
     29682      1794  TIP3      H2            -24.0005810409        8.6975955489       30.2229395704  TIP3      1594            0.0000000000
     29683      1795  TIP3      OH2           -31.9877964106       13.7487490726       26.8531227915  TIP3      1595            0.0000000000
     29684      1795  TIP3      H1            -31.8162547893       14.6737052433       27.0852463146  TIP3      1595            0.0000000000
     29685      1795  TIP3      H2            -32.8614457547       13.7956694789       26.4432534700  TIP3      1595            0.0000000000
     29686      1796  TIP3      OH2           -36.0261185395        8.2113680059       21.7078564707  TIP3      1596            0.0000000000
     29687      1796  TIP3      H1            -35.5005764096        9.0084732658       21.8899931523  TIP3      1596            0.0000000000
     29688      1796  TIP3      H2            -36.7340982186        8.6206707232       21.1888026047  TIP3      1596            0.0000000000
     29689      1797  TIP3      OH2           -30.9013666592       11.1191744326       26.3310805196  TIP3      1597            0.0000000000
     29690      1797  TIP3      H1            -31.2558348201       12.0349227526       26.3189685979  TIP3      1597            0.0000000000
     29691      1797  TIP3      H2            -30.6765555664       10.9776305719       27.2517251212  TIP3      1597            0.0000000000
     29692      1798  TIP3      OH2           -30.0252411135       15.2050694888       33.0175264895  TIP3      1598            0.0000000000
     29693      1798  TIP3      H1            -29.4177222552       15.8646255881       32.6406464378  TIP3      1598            0.0000000000
     29694      1798  TIP3      H2            -29.5075595102       14.8493232095       33.7692640278  TIP3      1598            0.0000000000
     29695      1799  TIP3      OH2           -26.9713703187       11.3017279659       32.3920986791  TIP3      1599            0.0000000000
     29696      1799  TIP3      H1            -27.4157273235       10.8870387344       33.1628888499  TIP3      1599            0.0000000000
     29697      1799  TIP3      H2            -26.2349636698       10.6899990811       32.2280363960  TIP3      1599            0.0000000000
     29698      1800  TIP3      OH2           -24.4124844190       13.1218112216       22.3508956813  TIP3      1600            0.0000000000
     29699      1800  TIP3      H1            -24.5497427652       12.5691231647       23.1433992544  TIP3      1600            0.0000000000
     29700      1800  TIP3      H2            -24.7604865745       12.4849278869       21.6912876546  TIP3      1600            0.0000000000
     29701      1801  TIP3      OH2           -23.5554331736       15.9653976075       34.6603413336  TIP3      1601            0.0000000000
     29702      1801  TIP3      H1            -24.4184887113       15.5684204752       34.4571863731  TIP3      1601            0.0000000000
     29703      1801  TIP3      H2            -23.4435107666       16.5689181783       33.8984868221  TIP3      1601            0.0000000000
     29704      1802  TIP3      OH2           -35.5586505862        3.3309839819       34.2030237932  TIP3      1602            0.0000000000
     29705      1802  TIP3      H1            -35.8903712099        3.6540813551       35.0644304942  TIP3      1602            0.0000000000
     29706      1802  TIP3      H2            -35.8924315305        2.4221664833       34.1707422816  TIP3      1602            0.0000000000
     29707      1803  TIP3      OH2           -23.3675859767       10.8344326540       23.9781606970  TIP3      1603            0.0000000000
     29708      1803  TIP3      H1            -23.6271254967        9.9025909644       24.1264391114  TIP3      1603            0.0000000000
     29709      1803  TIP3      H2            -22.3986922194       10.7383973149       23.9178019577  TIP3      1603            0.0000000000
     29710      1804  TIP3      OH2           -35.8893987803       15.1334254517       32.3263802062  TIP3      1604            0.0000000000
     29711      1804  TIP3      H1            -35.3324601456       14.3680099534       32.5229638606  TIP3      1604            0.0000000000
     29712      1804  TIP3      H2            -36.1449696451       15.3915610903       33.2189477891  TIP3      1604            0.0000000000
     29713      1805  TIP3      OH2           -31.3700586121       12.8088331345       22.4378285798  TIP3      1605            0.0000000000
     29714      1805  TIP3      H1            -30.6055142250       12.2151763445       22.4847368315  TIP3      1605            0.0000000000
     29715      1805  TIP3      H2            -30.9986014985       13.6536758026       22.7494532288  TIP3      1605            0.0000000000
     29716      1806  TIP3      OH2           -34.9144566821       10.3649070431       23.0881882692  TIP3      1606            0.0000000000
     29717      1806  TIP3      H1            -35.7427512150       10.7592951818       23.4258490256  TIP3      1606            0.0000000000
     29718      1806  TIP3      H2            -34.4820362276       11.0929641644       22.6091815814  TIP3      1606            0.0000000000
     29719      1807  TIP3      OH2           -26.8578508781        2.8991196247       33.2228135404  TIP3      1607            0.0000000000
     29720      1807  TIP3      H1            -26.0831333130        3.0353734717       33.7812086652  TIP3      1607            0.0000000000
     29721      1807  TIP3      H2            -27.2376379757        2.0625754226       33.5778616312  TIP3      1607            0.0000000000
     29722      1808  TIP3      OH2           -25.7915439248        2.2315003810       24.5949998460  TIP3      1608            0.0000000000
     29723      1808  TIP3      H1            -25.6142560513        2.7089724599       23.7690209032  TIP3      1608            0.0000000000
     29724      1808  TIP3      H2            -25.6496900623        2.9157680732       25.2881851241  TIP3      1608            0.0000000000
     29725      1809  TIP3      OH2           -28.5305359316       14.8229540229       22.8768321770  TIP3      1609            0.0000000000
     29726      1809  TIP3      H1            -29.3781267224       15.2921495618       23.0530515912  TIP3      1609            0.0000000000
     29727      1809  TIP3      H2            -27.9026889452       15.5576063189       22.7714331085  TIP3      1609            0.0000000000
     29728      1810  TIP3      OH2           -28.6055681440        4.1242609239       25.4030030492  TIP3      1610            0.0000000000
     29729      1810  TIP3      H1            -28.1716853941        4.9373581625       25.0418895902  TIP3      1610            0.0000000000
     29730      1810  TIP3      H2            -29.5389899201        4.2373019293       25.1900487812  TIP3      1610            0.0000000000
     29731      1811  TIP3      OH2           -28.0046788678        5.4318479442       34.2229490735  TIP3      1611            0.0000000000
     29732      1811  TIP3      H1            -27.9570509531        5.8882207631       35.0934411264  TIP3      1611            0.0000000000
     29733      1811  TIP3      H2            -27.7124414721        4.5215487831       34.3970185621  TIP3      1611            0.0000000000
     29734      1812  TIP3      OH2           -27.9764813499        1.3883654326       26.2363844865  TIP3      1612            0.0000000000
     29735      1812  TIP3      H1            -28.6012370621        2.1179224480       26.0754523286  TIP3      1612            0.0000000000
     29736      1812  TIP3      H2            -27.1919814330        1.7654495444       25.7898458920  TIP3      1612            0.0000000000
     29737      1813  TIP3      OH2           -31.0252948962       15.7743725883       23.1376241636  TIP3      1613            0.0000000000
     29738      1813  TIP3      H1            -31.5064483059       16.2454065256       22.4314441341  TIP3      1613            0.0000000000
     29739      1813  TIP3      H2            -31.5947190374       16.0072110701       23.8847542560  TIP3      1613            0.0000000000
     29740      1814  TIP3      OH2           -22.5275577516        3.1705653488       35.2401127462  TIP3      1614            0.0000000000
     29741      1814  TIP3      H1            -23.4615820246        3.3763718811       35.0414914246  TIP3      1614            0.0000000000
     29742      1814  TIP3      H2            -22.0936873181        3.3114353542       34.3807719836  TIP3      1614            0.0000000000
     29743      1815  TIP3      OH2           -23.5929708422        6.8772776604       29.1573001361  TIP3      1615            0.0000000000
     29744      1815  TIP3      H1            -24.3283337931        6.2459533541       29.1270963030  TIP3      1615            0.0000000000
     29745      1815  TIP3      H2            -22.9183675521        6.3946620566       29.6885595299  TIP3      1615            0.0000000000
     29746      1816  TIP3      OH2           -34.1577112646       12.4637648158       21.4432437730  TIP3      1616            0.0000000000
     29747      1816  TIP3      H1            -33.7094571584       12.6673760077       22.2784793558  TIP3      1616            0.0000000000
     29748      1816  TIP3      H2            -33.5957553086       12.9689640974       20.8382889499  TIP3      1616            0.0000000000
     29749      1817  TIP3      OH2           -22.8953051368       16.1423287554       30.5875951506  TIP3      1617            0.0000000000
     29750      1817  TIP3      H1            -22.9256266113       16.7775621247       29.8404998076  TIP3      1617            0.0000000000
     29751      1817  TIP3      H2            -21.9282170079       16.1645905406       30.7576798604  TIP3      1617            0.0000000000
     29752      1818  TIP3      OH2           -34.9835935316        0.5069057164       29.5617626569  TIP3      1618            0.0000000000
     29753      1818  TIP3      H1            -34.9896095163        0.1810088234       28.6493614316  TIP3      1618            0.0000000000
     29754      1818  TIP3      H2            -35.1911462875       -0.3341767812       30.0462132056  TIP3      1618            0.0000000000
     29755      1819  TIP3      OH2           -36.0365995079       14.1448627359       25.6702153251  TIP3      1619            0.0000000000
     29756      1819  TIP3      H1            -36.9388434698       14.4002020293       25.4009514844  TIP3      1619            0.0000000000
     29757      1819  TIP3      H2            -35.5422711616       14.8877145711       25.2697795267  TIP3      1619            0.0000000000
     29758      1820  TIP3      OH2           -36.7073123312       16.8918315632       37.1518771612  TIP3      1620            0.0000000000
     29759      1820  TIP3      H1            -36.1491247258       16.6279492544       37.9173520939  TIP3      1620            0.0000000000
     29760      1820  TIP3      H2            -37.3253514022       16.1582451867       37.1446037427  TIP3      1620            0.0000000000
     29761      1821  TIP3      OH2           -32.1034177670       15.7472699529       38.5379219412  TIP3      1621            0.0000000000
     29762      1821  TIP3      H1            -31.2209210579       15.3481803824       38.6192018651  TIP3      1621            0.0000000000
     29763      1821  TIP3      H2            -32.3160577541       15.5567693386       37.6026872074  TIP3      1621            0.0000000000
     29764      1822  TIP3      OH2           -25.9755319379       14.3838964672       37.4826207444  TIP3      1622            0.0000000000
     29765      1822  TIP3      H1            -26.3230786843       13.5228540349       37.8211768414  TIP3      1622            0.0000000000
     29766      1822  TIP3      H2            -25.1335851017       14.4442453606       37.9823064182  TIP3      1622            0.0000000000
     29767      1823  TIP3      OH2           -36.3435084569       11.0330307581       38.2176759690  TIP3      1623            0.0000000000
     29768      1823  TIP3      H1            -36.2722363739       10.0665068210       38.2191094997  TIP3      1623            0.0000000000
     29769      1823  TIP3      H2            -37.2671625809       11.0212795172       37.8856544629  TIP3      1623            0.0000000000
     29770      1824  TIP3      OH2           -30.3918535532       10.8361740534       37.1909763902  TIP3      1624            0.0000000000
     29771      1824  TIP3      H1            -30.6702571196       11.3194604139       36.3821065475  TIP3      1624            0.0000000000
     29772      1824  TIP3      H2            -30.4020271727        9.8767114831       36.9299968376  TIP3      1624            0.0000000000
     29773      1825  TIP3      OH2           -24.7660070058       10.5945058023       35.1125296954  TIP3      1625            0.0000000000
     29774      1825  TIP3      H1            -23.9448095820       11.1308737993       35.1090374843  TIP3      1625            0.0000000000
     29775      1825  TIP3      H2            -25.3960492178       11.3332225163       35.0984258394  TIP3      1625            0.0000000000
     29776      1826  TIP3      OH2           -36.0740575325        7.7829396553       37.8548033487  TIP3      1626            0.0000000000
     29777      1826  TIP3      H1            -35.3200668755        7.1683661232       37.7596939606  TIP3      1626            0.0000000000
     29778      1826  TIP3      H2            -35.8987063027        8.2149971899       38.7144115112  TIP3      1626            0.0000000000
     29779      1827  TIP3      OH2           -31.2712634978        8.7691329021       22.7151774660  TIP3      1627            0.0000000000
     29780      1827  TIP3      H1            -32.0168313244        8.1793967077       22.8783764362  TIP3      1627            0.0000000000
     29781      1827  TIP3      H2            -30.8890780350        8.4171484268       21.9025968845  TIP3      1627            0.0000000000
     29782      1828  TIP3      OH2           -32.0712702234        6.9918094007       34.5590610590  TIP3      1628            0.0000000000
     29783      1828  TIP3      H1            -32.7007397989        7.7392814112       34.4540712955  TIP3      1628            0.0000000000
     29784      1828  TIP3      H2            -31.3179244781        7.3657776858       34.0387748941  TIP3      1628            0.0000000000
     29785      1829  TIP3      OH2           -26.8792859377        9.6409744877       38.1515748451  TIP3      1629            0.0000000000
     29786      1829  TIP3      H1            -26.3266452100        9.1341959908       37.5371721042  TIP3      1629            0.0000000000
     29787      1829  TIP3      H2            -27.2592684475        8.9272966600       38.6973105256  TIP3      1629            0.0000000000
     29788      1830  TIP3      OH2           -32.2187960776        4.5164310345       35.4030694554  TIP3      1630            0.0000000000
     29789      1830  TIP3      H1            -31.9293152864        3.8774468823       34.7291797862  TIP3      1630            0.0000000000
     29790      1830  TIP3      H2            -32.1237358338        5.3920724328       34.9532553842  TIP3      1630            0.0000000000
     29791      1831  TIP3      OH2           -31.3464160638        2.4862284761       33.4178076366  TIP3      1631            0.0000000000
     29792      1831  TIP3      H1            -30.8585706350        2.9538880579       32.7092347203  TIP3      1631            0.0000000000
     29793      1831  TIP3      H2            -32.2454126767        2.4250699163       33.0307291452  TIP3      1631            0.0000000000
     29794      1832  TIP3      OH2           -29.8637958394        8.1216950332       33.3994058505  TIP3      1632            0.0000000000
     29795      1832  TIP3      H1            -28.9944849391        8.5412827002       33.4482809150  TIP3      1632            0.0000000000
     29796      1832  TIP3      H2            -30.4175936723        8.9110503300       33.1914334645  TIP3      1632            0.0000000000
     29797      1833  TIP3      OH2           -25.6639596811        5.6365536750       38.4169200293  TIP3      1633            0.0000000000
     29798      1833  TIP3      H1            -25.2871942781        4.7471350446       38.3212829660  TIP3      1633            0.0000000000
     29799      1833  TIP3      H2            -24.9124011438        6.1746031646       38.7012054604  TIP3      1633            0.0000000000
     29800      1834  TIP3      OH2           -23.9905860251        8.7373640261       36.9217233346  TIP3      1634            0.0000000000
     29801      1834  TIP3      H1            -24.3812127762        9.3113315414       36.2320961450  TIP3      1634            0.0000000000
     29802      1834  TIP3      H2            -23.0488420708        8.7642032351       36.6598239368  TIP3      1634            0.0000000000
     29803      1835  TIP3      OH2           -33.8573471086        5.6881168482       37.3759423172  TIP3      1635            0.0000000000
     29804      1835  TIP3      H1            -34.3523304948        4.8789143887       37.6316176927  TIP3      1635            0.0000000000
     29805      1835  TIP3      H2            -33.2531554841        5.3267174131       36.6938469040  TIP3      1635            0.0000000000
     29806      1836  TIP3      OH2           -30.5875816210       -0.0137239514       33.6093725563  TIP3      1636            0.0000000000
     29807      1836  TIP3      H1            -30.7792325410        0.9402876593       33.4993084786  TIP3      1636            0.0000000000
     29808      1836  TIP3      H2            -31.4091522596       -0.3946968211       33.2494380559  TIP3      1636            0.0000000000
     29809      1837  TIP3      OH2           -29.3921768040        4.3774931508       37.5951880216  TIP3      1637            0.0000000000
     29810      1837  TIP3      H1            -29.7939613443        4.1046979927       38.4363860098  TIP3      1637            0.0000000000
     29811      1837  TIP3      H2            -30.0835270580        4.1134899929       36.9747566432  TIP3      1637            0.0000000000
     29812      1838  TIP3      OH2           -26.7701511569        3.3717008603       36.7843295175  TIP3      1638            0.0000000000
     29813      1838  TIP3      H1            -27.6275544609        3.5072203178       37.2251958182  TIP3      1638            0.0000000000
     29814      1838  TIP3      H2            -26.3342507253        2.7876796841       37.4470649215  TIP3      1638            0.0000000000
     29815      1839  TIP3      OH2           -25.0703628817        2.0873809003       38.4648905429  TIP3      1639            0.0000000000
     29816      1839  TIP3      H1            -25.1623669362        1.1026069857       38.4226639532  TIP3      1639            0.0000000000
     29817      1839  TIP3      H2            -25.1984519210        2.2773315264       39.4114928382  TIP3      1639            0.0000000000
     29818      1840  TIP3      OH2           -35.2535363538        3.4234295073       37.8983972860  TIP3      1640            0.0000000000
     29819      1840  TIP3      H1            -34.9574916215        2.6622797513       37.3706160303  TIP3      1640            0.0000000000
     29820      1840  TIP3      H2            -35.6285023395        2.9799529742       38.6990168056  TIP3      1640            0.0000000000
     29821      1841  TIP3      OH2           -30.5232790795       -0.4894956019       36.6258891056  TIP3      1641            0.0000000000
     29822      1841  TIP3      H1            -29.7642190649       -1.1045128798       36.6798996193  TIP3      1641            0.0000000000
     29823      1841  TIP3      H2            -30.6338253732       -0.4631882103       35.6591261682  TIP3      1641            0.0000000000
     29824      1842  TIP3      OH2           -30.4830264426        0.9012737645       39.0278941479  TIP3      1642            0.0000000000
     29825      1842  TIP3      H1            -30.5365040265        0.3794806570       38.1884728895  TIP3      1642            0.0000000000
     29826      1842  TIP3      H2            -30.9175814656        1.7387048042       38.7782276973  TIP3      1642            0.0000000000
     29827      1843  TIP3      OH2           -37.3191305306       12.3873818040       21.5544790597  TIP3      1643            0.0000000000
     29828      1843  TIP3      H1            -36.3860567166       12.6009835549       21.3867856937  TIP3      1643            0.0000000000
     29829      1843  TIP3      H2            -37.3690338332       11.5457016318       21.0356613738  TIP3      1643            0.0000000000
     29830      1844  TIP3      OH2           -37.5637985126       18.0353751824       26.1343218104  TIP3      1644            0.0000000000
     29831      1844  TIP3      H1            -38.5220135823       18.1283664221       26.2285768120  TIP3      1644            0.0000000000
     29832      1844  TIP3      H2            -37.3913834185       17.4449444099       26.8892182255  TIP3      1644            0.0000000000
     29833      1845  TIP3      OH2           -37.1659000040       16.3023520953       28.3712179509  TIP3      1645            0.0000000000
     29834      1845  TIP3      H1            -36.6941576346       15.4796209251       28.1338930209  TIP3      1645            0.0000000000
     29835      1845  TIP3      H2            -36.5931043922       16.6532978828       29.0669288312  TIP3      1645            0.0000000000
     29836      1846  TIP3      OH2           -20.1501326058       16.8432672272       31.0316292901  TIP3      1646            0.0000000000
     29837      1846  TIP3      H1            -19.4837723008       16.8800746635       31.7209665186  TIP3      1646            0.0000000000
     29838      1846  TIP3      H2            -19.7321997013       17.2734026169       30.2754100467  TIP3      1646            0.0000000000
     29839      1847  TIP3      OH2           -20.2316989667       16.3996975754       34.2614980935  TIP3      1647            0.0000000000
     29840      1847  TIP3      H1            -20.6362071182       15.8540195670       33.5544614527  TIP3      1647            0.0000000000
     29841      1847  TIP3      H2            -20.2838806949       15.7420735061       34.9809627881  TIP3      1647            0.0000000000
     29842      1848  TIP3      OH2           -21.7719876846       11.9994114377       38.7764192274  TIP3      1648            0.0000000000
     29843      1848  TIP3      H1            -22.6901786640       12.0104306775       39.1286097202  TIP3      1648            0.0000000000
     29844      1848  TIP3      H2            -21.3642904846       12.6990655455       39.3340304220  TIP3      1648            0.0000000000
     29845      1849  TIP3      OH2           -20.6262591302       10.4101195517       23.8775984286  TIP3      1649            0.0000000000
     29846      1849  TIP3      H1            -19.8407087137       11.0034266410       23.9624252861  TIP3      1649            0.0000000000
     29847      1849  TIP3      H2            -20.5976250558        9.9724062573       24.7549367364  TIP3      1649            0.0000000000
     29848      1850  TIP3      OH2           -20.2012204000        8.6692886552       26.0052174350  TIP3      1650            0.0000000000
     29849      1850  TIP3      H1            -21.0143514089        8.2083371480       26.3309530707  TIP3      1650            0.0000000000
     29850      1850  TIP3      H2            -19.6786441417        8.6666017503       26.8245316376  TIP3      1650            0.0000000000
     29851      1851  TIP3      OH2           -20.4088951035       11.4331925851       30.9216786463  TIP3      1651            0.0000000000
     29852      1851  TIP3      H1            -19.8299285421       10.6759430390       30.6891859411  TIP3      1651            0.0000000000
     29853      1851  TIP3      H2            -19.8613515400       12.2069320298       30.6956831940  TIP3      1651            0.0000000000
     29854      1852  TIP3      OH2           -21.8057068154       14.1545669320       33.1585380460  TIP3      1652            0.0000000000
     29855      1852  TIP3      H1            -22.5980877554       14.4209602099       33.6414536778  TIP3      1652            0.0000000000
     29856      1852  TIP3      H2            -22.1901890589       13.9275275275       32.2827526686  TIP3      1652            0.0000000000
     29857      1853  TIP3      OH2           -19.9174711525        7.6514944474       22.4809099967  TIP3      1653            0.0000000000
     29858      1853  TIP3      H1            -20.5688613337        8.0239902471       21.8672571572  TIP3      1653            0.0000000000
     29859      1853  TIP3      H2            -19.7457641995        8.4096561875       23.0610513679  TIP3      1653            0.0000000000
     29860      1854  TIP3      OH2           -21.7977587006        5.8057243350       20.9830976629  TIP3      1654            0.0000000000
     29861      1854  TIP3      H1            -21.7006703411        6.5649004964       20.3901529615  TIP3      1654            0.0000000000
     29862      1854  TIP3      H2            -20.9229945780        5.7360159653       21.4025053043  TIP3      1654            0.0000000000
     29863      1855  TIP3      OH2           -22.2464715865        7.2548238201       26.7950497585  TIP3      1655            0.0000000000
     29864      1855  TIP3      H1            -22.4503722448        6.3496934393       26.4885281114  TIP3      1655            0.0000000000
     29865      1855  TIP3      H2            -22.5143444464        7.2291045630       27.7382561730  TIP3      1655            0.0000000000
     29866      1856  TIP3      OH2           -36.8164330015        9.9213996210       30.6231425283  TIP3      1656            0.0000000000
     29867      1856  TIP3      H1            -36.6868020396        9.4381048707       29.7870273131  TIP3      1656            0.0000000000
     29868      1856  TIP3      H2            -36.0131973483        9.6327935291       31.1017581999  TIP3      1656            0.0000000000
     29869      1857  TIP3      OH2           -21.2391526103        9.0023774251       36.2251252657  TIP3      1657            0.0000000000
     29870      1857  TIP3      H1            -20.7022380779        8.2054968675       36.4330823374  TIP3      1657            0.0000000000
     29871      1857  TIP3      H2            -20.5873369614        9.7372000944       36.1599768611  TIP3      1657            0.0000000000
     29872      1858  TIP3      OH2           -20.1650478556        6.5198614754       36.7016274905  TIP3      1658            0.0000000000
     29873      1858  TIP3      H1            -21.0986687682        6.2222919986       36.5678058501  TIP3      1658            0.0000000000
     29874      1858  TIP3      H2            -19.6646229162        5.6708607296       36.7708924632  TIP3      1658            0.0000000000
     29875      1859  TIP3      OH2           -22.6532751644        4.9234891391       25.2573063719  TIP3      1659            0.0000000000
     29876      1859  TIP3      H1            -22.4560786294        3.9913345820       25.4023428383  TIP3      1659            0.0000000000
     29877      1859  TIP3      H2            -21.8649047190        5.1520622460       24.7093965240  TIP3      1659            0.0000000000
     29878      1860  TIP3      OH2           -21.7812706472        5.3193812481       30.5307252197  TIP3      1660            0.0000000000
     29879      1860  TIP3      H1            -20.7960066594        5.3748314249       30.5997321999  TIP3      1660            0.0000000000
     29880      1860  TIP3      H2            -22.0366028727        5.3612243027       31.4698851113  TIP3      1660            0.0000000000
     29881      1861  TIP3      OH2           -21.7893406267        6.0384150580       33.1821891412  TIP3      1661            0.0000000000
     29882      1861  TIP3      H1            -22.6279594555        6.3061647971       33.6122625623  TIP3      1661            0.0000000000
     29883      1861  TIP3      H2            -21.3900099505        6.8990922907       32.9292063204  TIP3      1661            0.0000000000
     29884      1862  TIP3      OH2           -37.1745347073        4.1901481946       36.1578264226  TIP3      1662            0.0000000000
     29885      1862  TIP3      H1            -36.4265082039        4.4081499981       36.7488851243  TIP3      1662            0.0000000000
     29886      1862  TIP3      H2            -37.2329035625        3.2179276950       36.2364534948  TIP3      1662            0.0000000000
     29887      1863  TIP3      OH2           -19.5805117963        0.3683983982       38.4378032409  TIP3      1663            0.0000000000
     29888      1863  TIP3      H1            -19.1729503170       -0.3623849442       37.9295822294  TIP3      1663            0.0000000000
     29889      1863  TIP3      H2            -19.6977312241        1.0479911155       37.7293298248  TIP3      1663            0.0000000000
     29890      1864  TIP3      OH2           -21.9927550344        1.3322045596       25.0300545310  TIP3      1664            0.0000000000
     29891      1864  TIP3      H1            -21.7628364879        1.4070335146       25.9796786590  TIP3      1664            0.0000000000
     29892      1864  TIP3      H2            -22.8494402805        0.8789175519       25.0245774506  TIP3      1664            0.0000000000
     29893      1865  TIP3      OH2           -36.8191680135        2.5858226605       30.2783984679  TIP3      1665            0.0000000000
     29894      1865  TIP3      H1            -36.1868920746        1.8422085517       30.1870702745  TIP3      1665            0.0000000000
     29895      1865  TIP3      H2            -36.2320928316        3.3680025829       30.2813730464  TIP3      1665            0.0000000000
     29896      1866  TIP3      OH2           -37.3333881272        5.8946283089       30.3895014787  TIP3      1666            0.0000000000
     29897      1866  TIP3      H1            -36.8571409497        5.7339045622       29.5672200936  TIP3      1666            0.0000000000
     29898      1866  TIP3      H2            -37.5010900089        6.8480865767       30.3772036219  TIP3      1666            0.0000000000
     29899      1867  TIP3      OH2           -20.3018301562        2.2654782777       36.8278746940  TIP3      1667            0.0000000000
     29900      1867  TIP3      H1            -21.0682266714        2.8532547914       36.9517652737  TIP3      1667            0.0000000000
     29901      1867  TIP3      H2            -20.5790023580        1.7886150917       36.0227804671  TIP3      1667            0.0000000000
     29902      1868  TIP3      OH2           -37.4152252375        2.5787883550       25.2195425181  TIP3      1668            0.0000000000
     29903      1868  TIP3      H1            -38.3280026971        2.4022885154       24.9088066698  TIP3      1668            0.0000000000
     29904      1868  TIP3      H2            -36.9027821064        2.6440960940       24.4037065883  TIP3      1668            0.0000000000
     29905      1869  TIP3      OH2           -23.0018859474       17.0348769795       26.7564876936  TIP3      1669            0.0000000000
     29906      1869  TIP3      H1            -22.4334795583       16.8583589498       25.9833937490  TIP3      1669            0.0000000000
     29907      1869  TIP3      H2            -22.4059963296       17.4338429284       27.4145602808  TIP3      1669            0.0000000000
     29908      1870  TIP3      OH2           -37.7369148771        0.3375083781       33.1175999425  TIP3      1670            0.0000000000
     29909      1870  TIP3      H1            -38.6548986283       -0.0112449753       33.1483081308  TIP3      1670            0.0000000000
     29910      1870  TIP3      H2            -37.8522422024        1.1100249768       32.5370801643  TIP3      1670            0.0000000000
     29911      1871  TIP3      OH2           -35.5914382996       13.7311107096       37.3330371896  TIP3      1671            0.0000000000
     29912      1871  TIP3      H1            -36.2369351108       14.0327421416       36.6933971322  TIP3      1671            0.0000000000
     29913      1871  TIP3      H2            -36.0875078489       13.0912531054       37.8615125089  TIP3      1671            0.0000000000
     29914      1872  TIP3      OH2           -32.6797303588       15.2561391894       33.6725308600  TIP3      1672            0.0000000000
     29915      1872  TIP3      H1            -32.7090542080       16.1641904249       33.3096860847  TIP3      1672            0.0000000000
     29916      1872  TIP3      H2            -31.7179056157       15.0744850296       33.6499391131  TIP3      1672            0.0000000000
     29917      1873  TIP3      OH2           -28.6466365324       16.6412322750       36.1838012672  TIP3      1673            0.0000000000
     29918      1873  TIP3      H1            -28.5293597735       16.3177655809       37.0988122438  TIP3      1673            0.0000000000
     29919      1873  TIP3      H2            -27.7194332584       16.8430967405       35.9550080079  TIP3      1673            0.0000000000
     29920      1874  TIP3      OH2           -26.2458910276       17.9262192662       35.7220524729  TIP3      1674            0.0000000000
     29921      1874  TIP3      H1            -25.4780845590       17.4367950888       35.4084745084  TIP3      1674            0.0000000000
     29922      1874  TIP3      H2            -25.9456888435       18.2272875894       36.6069139958  TIP3      1674            0.0000000000
     29923      1875  TIP3      OH2           -20.9979910812       -0.0898574894       34.9649298897  TIP3      1675            0.0000000000
     29924      1875  TIP3      H1            -21.7015837609        0.3561360551       34.4726157172  TIP3      1675            0.0000000000
     29925      1875  TIP3      H2            -20.9540380954       -0.9668782119       34.5170982936  TIP3      1675            0.0000000000
     29926      1876  TIP3      OH2           -35.2082869836       18.3916271938       33.6411613401  TIP3      1676            0.0000000000
     29927      1876  TIP3      H1            -36.0873935715       18.6242875200       33.2673709306  TIP3      1676            0.0000000000
     29928      1876  TIP3      H2            -35.4166219271       18.2940975601       34.5851854265  TIP3      1676            0.0000000000
     29929      1877  TIP3      OH2           -32.9503823758       17.8903583459       32.3271608858  TIP3      1677            0.0000000000
     29930      1877  TIP3      H1            -33.8590466116       17.8453572021       32.7155275203  TIP3      1677            0.0000000000
     29931      1877  TIP3      H2            -33.1105214762       18.6785400688       31.7890909568  TIP3      1677            0.0000000000
     29932      1878  TIP3      OH2           -28.4089011860       17.3641465069       31.7028121475  TIP3      1678            0.0000000000
     29933      1878  TIP3      H1            -28.2858098265       17.8503727079       30.8717417689  TIP3      1678            0.0000000000
     29934      1878  TIP3      H2            -28.2103596655       18.0768999660       32.3521849556  TIP3      1678            0.0000000000
     29935      1879  TIP3      OH2           -26.2081632116       16.0899531133       33.1678725791  TIP3      1679            0.0000000000
     29936      1879  TIP3      H1            -26.9053433421       16.5034635194       32.6202799697  TIP3      1679            0.0000000000
     29937      1879  TIP3      H2            -25.4679621925       16.6744599985       32.9333484026  TIP3      1679            0.0000000000
     29938      1880  TIP3      OH2           -23.3263804339       17.6865013462       32.6675698758  TIP3      1680            0.0000000000
     29939      1880  TIP3      H1            -23.3879138307       18.5623856141       32.2282183268  TIP3      1680            0.0000000000
     29940      1880  TIP3      H2            -23.2114802473       17.1253340858       31.8652807078  TIP3      1680            0.0000000000
     29941      1881  TIP3      OH2           -35.2276926987       17.2991778100       30.4570767819  TIP3      1681            0.0000000000
     29942      1881  TIP3      H1            -35.5128638297       16.5725330271       31.0414628278  TIP3      1681            0.0000000000
     29943      1881  TIP3      H2            -34.5897639350       16.8280600651       29.8683959941  TIP3      1681            0.0000000000
     29944      1882  TIP3      OH2           -33.8250851762       15.6405506838       28.9663870670  TIP3      1682            0.0000000000
     29945      1882  TIP3      H1            -34.1629770721       14.7560621472       29.1564706918  TIP3      1682            0.0000000000
     29946      1882  TIP3      H2            -32.9584985851       15.6315617305       29.4193015153  TIP3      1682            0.0000000000
     29947      1883  TIP3      OH2           -31.3921361193       15.5015715653       30.2871612395  TIP3      1683            0.0000000000
     29948      1883  TIP3      H1            -31.0105867356       14.6190539435       30.1845734126  TIP3      1683            0.0000000000
     29949      1883  TIP3      H2            -31.1242933624       15.7007181066       31.2029135441  TIP3      1683            0.0000000000
     29950      1884  TIP3      OH2           -27.3038976198        1.2327619125       29.3250753361  TIP3      1684            0.0000000000
     29951      1884  TIP3      H1            -28.1607902413        1.4397386196       29.7173500589  TIP3      1684            0.0000000000
     29952      1884  TIP3      H2            -27.5778789957        0.9381992847       28.4484147212  TIP3      1684            0.0000000000
     29953      1885  TIP3      OH2           -22.4941881867       -0.4646770735       29.1091708635  TIP3      1685            0.0000000000
     29954      1885  TIP3      H1            -21.8861234301        0.1159207737       28.5784938964  TIP3      1685            0.0000000000
     29955      1885  TIP3      H2            -23.3848378835       -0.2416128732       28.7407271576  TIP3      1685            0.0000000000
     29956      1886  TIP3      OH2           -20.8585936753        0.7807844814       27.4661462612  TIP3      1686            0.0000000000
     29957      1886  TIP3      H1            -20.2128851465        0.1663688169       27.0441240541  TIP3      1686            0.0000000000
     29958      1886  TIP3      H2            -20.2592526199        1.5489908041       27.6441554581  TIP3      1686            0.0000000000
     29959      1887  TIP3      OH2           -35.9390599856        0.1372839177       22.3491154027  TIP3      1687            0.0000000000
     29960      1887  TIP3      H1            -36.6273903502        0.4397245306       21.7471982290  TIP3      1687            0.0000000000
     29961      1887  TIP3      H2            -36.4477470864        0.0335237047       23.1716466407  TIP3      1687            0.0000000000
     29962      1888  TIP3      OH2           -30.8092356227       -0.6855380300       27.0061908905  TIP3      1688            0.0000000000
     29963      1888  TIP3      H1            -30.0949350517       -0.3440352376       26.4561536402  TIP3      1688            0.0000000000
     29964      1888  TIP3      H2            -31.4408322725        0.0550781600       26.9782998102  TIP3      1688            0.0000000000
     29965      1889  TIP3      OH2           -24.9393074108        0.1066921707       27.8378702838  TIP3      1689            0.0000000000
     29966      1889  TIP3      H1            -25.5206153185        0.4424720749       27.1456623672  TIP3      1689            0.0000000000
     29967      1889  TIP3      H2            -25.5147971531       -0.6192008213       28.1762857777  TIP3      1689            0.0000000000
     29968      1890  TIP3      OH2           -24.3195789610       -0.0296748605       23.6869478925  TIP3      1690            0.0000000000
     29969      1890  TIP3      H1            -24.9629878573        0.5641513115       24.1298371925  TIP3      1690            0.0000000000
     29970      1890  TIP3      H2            -24.6410178586       -0.9134213211       23.9945168093  TIP3      1690            0.0000000000
     29971      1891  TIP3      OH2           -36.8975365387       15.9747523161       23.9356385411  TIP3      1691            0.0000000000
     29972      1891  TIP3      H1            -37.5496870586       16.5781951029       23.5440575470  TIP3      1691            0.0000000000
     29973      1891  TIP3      H2            -36.1526050636       16.6006848996       24.0615702364  TIP3      1691            0.0000000000
     29974      1892  TIP3      OH2           -21.2647715618       16.3021633338       24.8681065804  TIP3      1692            0.0000000000
     29975      1892  TIP3      H1            -21.3829856975       15.5336389778       24.2623843845  TIP3      1692            0.0000000000
     29976      1892  TIP3      H2            -21.4710816295       17.0452257906       24.2584400404  TIP3      1692            0.0000000000
     29977      1893  TIP3      OH2           -35.8724915414        0.6931796653       36.5290506381  TIP3      1693            0.0000000000
     29978      1893  TIP3      H1            -36.3494738062       -0.1714740685       36.5667651056  TIP3      1693            0.0000000000
     29979      1893  TIP3      H2            -35.0031652658        0.4376019095       36.8953666391  TIP3      1693            0.0000000000
     29980      1894  TIP3      OH2           -33.5146514903        0.1901000635       38.3478890446  TIP3      1694            0.0000000000
     29981      1894  TIP3      H1            -32.5892136241        0.0006067196       38.1014998135  TIP3      1694            0.0000000000
     29982      1894  TIP3      H2            -33.7501582440       -0.6716416595       38.7467132681  TIP3      1694            0.0000000000
     29983      1895  TIP3      OH2           -25.1804459015       -0.5875839680       38.2190208382  TIP3      1695            0.0000000000
     29984      1895  TIP3      H1            -25.1057909847       -1.1963826181       38.9856847099  TIP3      1695            0.0000000000
     29985      1895  TIP3      H2            -24.2448653500       -0.5957167263       37.9135285431  TIP3      1695            0.0000000000
     29986      1896  TIP3      OH2           -21.7868839426       15.5839407593       36.6199656735  TIP3      1696            0.0000000000
     29987      1896  TIP3      H1            -22.3771483713       15.5619364929       35.8335995239  TIP3      1696            0.0000000000
     29988      1896  TIP3      H2            -22.1320678279       16.3772654617       37.0540662261  TIP3      1696            0.0000000000
     29989      1897  TIP3      OH2            -7.3835286795        9.2035448363       26.5251875855  TIP3      1697            0.0000000000
     29990      1897  TIP3      H1             -7.4330129499       10.1563597502       26.7119201035  TIP3      1697            0.0000000000
     29991      1897  TIP3      H2             -8.0953659182        9.1066894653       25.8600460374  TIP3      1697            0.0000000000
     29992      1898  TIP3      OH2            -8.4697885071        8.3169073156       30.1691162243  TIP3      1698            0.0000000000
     29993      1898  TIP3      H1             -8.4999154933        7.8665436981       31.0461146164  TIP3      1698            0.0000000000
     29994      1898  TIP3      H2             -9.1196732564        7.8385265608       29.6340789333  TIP3      1698            0.0000000000
     29995      1899  TIP3      OH2           -16.4856877062        8.1153466128       31.7381426052  TIP3      1699            0.0000000000
     29996      1899  TIP3      H1            -16.4114111504        7.4467687950       32.4463530988  TIP3      1699            0.0000000000
     29997      1899  TIP3      H2            -15.6536060125        8.5956794494       31.8393327201  TIP3      1699            0.0000000000
     29998      1900  TIP3      OH2            -5.1336962812       11.1103035209       28.8248951566  TIP3      1700            0.0000000000
     29999      1900  TIP3      H1             -5.2715192804       10.5634880207       29.6075523101  TIP3      1700            0.0000000000
     30000      1900  TIP3      H2             -5.0233844195       11.9727162207       29.2502325727  TIP3      1700            0.0000000000
     30001      1901  TIP3      OH2           -15.4021687061       12.8992589159       29.9604511127  TIP3      1701            0.0000000000
     30002      1901  TIP3      H1            -15.7776765550       12.0278643908       29.7206507758  TIP3      1701            0.0000000000
     30003      1901  TIP3      H2            -14.4675235685       12.7076975872       29.7540313496  TIP3      1701            0.0000000000
     30004      1902  TIP3      OH2           -18.7157670409        6.2076422428       25.9737210154  TIP3      1702            0.0000000000
     30005      1902  TIP3      H1            -18.9494881545        7.1225203580       25.7796744270  TIP3      1702            0.0000000000
     30006      1902  TIP3      H2            -19.4195419057        5.7362337112       25.4900402441  TIP3      1702            0.0000000000
     30007      1903  TIP3      OH2           -18.1153992580        8.5141162523       28.2327052362  TIP3      1703            0.0000000000
     30008      1903  TIP3      H1            -17.6419767437        7.6771291904       28.4754544209  TIP3      1703            0.0000000000
     30009      1903  TIP3      H2            -17.5254280902        8.9175595006       27.5798042881  TIP3      1703            0.0000000000
     30010      1904  TIP3      OH2            -7.9270589729       16.5503146808       28.6335890747  TIP3      1704            0.0000000000
     30011      1904  TIP3      H1             -7.0415631272       16.4836269258       28.2204891494  TIP3      1704            0.0000000000
     30012      1904  TIP3      H2             -7.9740849374       15.7621055914       29.1883706301  TIP3      1704            0.0000000000
     30013      1905  TIP3      OH2           -10.5370369122       11.1964331040       31.2287382777  TIP3      1705            0.0000000000
     30014      1905  TIP3      H1            -10.3446292303       10.7991809744       30.3731054192  TIP3      1705            0.0000000000
     30015      1905  TIP3      H2             -9.6303359301       11.3807380229       31.5675266914  TIP3      1705            0.0000000000
     30016      1906  TIP3      OH2            -1.7084662488        2.2535443980       31.2621289044  TIP3      1706            0.0000000000
     30017      1906  TIP3      H1             -1.5900652269        2.9923606352       31.8980249751  TIP3      1706            0.0000000000
     30018      1906  TIP3      H2             -1.0547259549        2.4911922459       30.5760752303  TIP3      1706            0.0000000000
     30019      1907  TIP3      OH2            -6.7237878974        5.5433492679       31.2096106635  TIP3      1707            0.0000000000
     30020      1907  TIP3      H1             -6.4012902871        4.6266215005       31.3112651533  TIP3      1707            0.0000000000
     30021      1907  TIP3      H2             -7.5352680008        5.3888819206       30.6952139951  TIP3      1707            0.0000000000
     30022      1908  TIP3      OH2           -13.8735743796        3.2251099357       27.9314186966  TIP3      1708            0.0000000000
     30023      1908  TIP3      H1            -13.7682502408        4.0944797870       27.4868128836  TIP3      1708            0.0000000000
     30024      1908  TIP3      H2            -14.3664160871        2.7449230485       27.2305543328  TIP3      1708            0.0000000000
     30025      1909  TIP3      OH2           -17.2610804787        6.0436511428       28.9812676242  TIP3      1709            0.0000000000
     30026      1909  TIP3      H1            -16.6642289626        5.4877063704       29.5116069776  TIP3      1709            0.0000000000
     30027      1909  TIP3      H2            -17.1245332684        5.6475987068       28.0994577288  TIP3      1709            0.0000000000
     30028      1910  TIP3      OH2           -12.2160337496        7.4241447668       28.4166747505  TIP3      1710            0.0000000000
     30029      1910  TIP3      H1            -11.4366429187        6.8618811299       28.3148703860  TIP3      1710            0.0000000000
     30030      1910  TIP3      H2            -12.9118960004        6.8021106198       28.1136803749  TIP3      1710            0.0000000000
     30031      1911  TIP3      OH2            -1.6024097199        3.7849019477       33.4867543339  TIP3      1711            0.0000000000
     30032      1911  TIP3      H1             -1.9180130320        4.6593950080       33.1439173132  TIP3      1711            0.0000000000
     30033      1911  TIP3      H2             -1.3771422875        4.0349524910       34.3913074842  TIP3      1711            0.0000000000
     30034      1912  TIP3      OH2           -14.9144217938        2.3871227630       32.3313093142  TIP3      1712            0.0000000000
     30035      1912  TIP3      H1            -15.2757164665        2.8795924338       31.5622826902  TIP3      1712            0.0000000000
     30036      1912  TIP3      H2            -15.5228411333        2.6750576968       33.0463618634  TIP3      1712            0.0000000000
     30037      1913  TIP3      OH2            -7.8697841618       12.0357844994       25.9588354874  TIP3      1713            0.0000000000
     30038      1913  TIP3      H1             -8.3364113631       11.8509389782       25.1329199085  TIP3      1713            0.0000000000
     30039      1913  TIP3      H2             -8.1271059020       12.9652013969       26.1388598767  TIP3      1713            0.0000000000
     30040      1914  TIP3      OH2           -12.8252599355       10.0521285980       32.0718994286  TIP3      1714            0.0000000000
     30041      1914  TIP3      H1            -13.4025192334       10.7266169184       32.4857936455  TIP3      1714            0.0000000000
     30042      1914  TIP3      H2            -12.1208447516       10.6163114760       31.6762925432  TIP3      1714            0.0000000000
     30043      1915  TIP3      OH2           -15.3208114314        4.3413935929       30.1360904316  TIP3      1715            0.0000000000
     30044      1915  TIP3      H1            -14.6558030624        4.9072067229       30.6057700213  TIP3      1715            0.0000000000
     30045      1915  TIP3      H2            -14.8158757560        4.0615479563       29.3334188834  TIP3      1715            0.0000000000
     30046      1916  TIP3      OH2           -13.9984449090       12.3557979865       33.1448020923  TIP3      1716            0.0000000000
     30047      1916  TIP3      H1            -14.1726714989       13.1304926453       32.5888699503  TIP3      1716            0.0000000000
     30048      1916  TIP3      H2            -14.8541876379       12.2856850624       33.6378402945  TIP3      1716            0.0000000000
     30049      1917  TIP3      OH2           -18.2195569886       11.9463727706       23.9751979495  TIP3      1717            0.0000000000
     30050      1917  TIP3      H1            -17.6543358146       12.5215681718       23.4375492595  TIP3      1717            0.0000000000
     30051      1917  TIP3      H2            -17.9464576957       12.2462733914       24.8664922532  TIP3      1717            0.0000000000
     30052      1918  TIP3      OH2            -4.3676740830       13.4312404671       30.8451639058  TIP3      1718            0.0000000000
     30053      1918  TIP3      H1             -5.3175464225       13.5727662962       31.0550011518  TIP3      1718            0.0000000000
     30054      1918  TIP3      H2             -4.2293965334       14.2530005470       30.3482254463  TIP3      1718            0.0000000000
     30055      1919  TIP3      OH2            -3.8746354875        1.1251081433       32.7527799488  TIP3      1719            0.0000000000
     30056      1919  TIP3      H1             -4.7118238649        1.5173853958       32.4670844492  TIP3      1719            0.0000000000
     30057      1919  TIP3      H2             -3.2603168819        1.4047491451       32.0340297874  TIP3      1719            0.0000000000
     30058      1920  TIP3      OH2           -11.2639755921       -0.0358877999       29.6014754025  TIP3      1720            0.0000000000
     30059      1920  TIP3      H1            -11.5917766991       -0.9419439503       29.6998909623  TIP3      1720            0.0000000000
     30060      1920  TIP3      H2            -12.0577889597        0.4685254147       29.9262463949  TIP3      1720            0.0000000000
     30061      1921  TIP3      OH2            -5.6358627111       15.4934479028       27.3733533806  TIP3      1721            0.0000000000
     30062      1921  TIP3      H1             -5.6583018329       14.5458256536       27.1347424235  TIP3      1721            0.0000000000
     30063      1921  TIP3      H2             -5.6573860552       15.8817399859       26.4833918881  TIP3      1721            0.0000000000
     30064      1922  TIP3      OH2            -4.7654507008       12.9611769932       26.0730625718  TIP3      1722            0.0000000000
     30065      1922  TIP3      H1             -5.2073726787       12.6044788560       25.2781111593  TIP3      1722            0.0000000000
     30066      1922  TIP3      H2             -4.9764151969       12.2912345320       26.7375042559  TIP3      1722            0.0000000000
     30067      1923  TIP3      OH2            -3.4175848135       11.8014184717       34.6658604271  TIP3      1723            0.0000000000
     30068      1923  TIP3      H1             -3.1969348870       11.0821386360       34.0289772066  TIP3      1723            0.0000000000
     30069      1923  TIP3      H2             -3.3168654509       12.5828300044       34.0822718383  TIP3      1723            0.0000000000
     30070      1924  TIP3      OH2            -9.0456877914        8.4658486948       24.4060249345  TIP3      1724            0.0000000000
     30071      1924  TIP3      H1             -9.5095480083        9.2335987692       23.9972810064  TIP3      1724            0.0000000000
     30072      1924  TIP3      H2             -8.2875574266        8.3537085506       23.8002540336  TIP3      1724            0.0000000000
     30073      1925  TIP3      OH2            -1.3245818023        8.1752787648       32.4424605040  TIP3      1725            0.0000000000
     30074      1925  TIP3      H1             -1.8815787381        8.9604431242       32.5863249526  TIP3      1725            0.0000000000
     30075      1925  TIP3      H2             -0.7840450598        8.5205349292       31.6993614130  TIP3      1725            0.0000000000
     30076      1926  TIP3      OH2            -4.9808862410        8.8690968747       25.3797586044  TIP3      1726            0.0000000000
     30077      1926  TIP3      H1             -5.9201864041        8.8628235110       25.7104230400  TIP3      1726            0.0000000000
     30078      1926  TIP3      H2             -4.5103871735        8.9742963483       26.2120395296  TIP3      1726            0.0000000000
     30079      1927  TIP3      OH2            -5.2956933575        6.8752409049       34.4077455249  TIP3      1727            0.0000000000
     30080      1927  TIP3      H1             -5.0805806859        7.7546738991       34.7517134783  TIP3      1727            0.0000000000
     30081      1927  TIP3      H2             -6.0188334359        7.1118017211       33.7918656897  TIP3      1727            0.0000000000
     30082      1928  TIP3      OH2           -13.7758770015        9.2004698739       26.9482752162  TIP3      1728            0.0000000000
     30083      1928  TIP3      H1            -14.0336926628        8.7983149697       26.0807119821  TIP3      1728            0.0000000000
     30084      1928  TIP3      H2            -13.0957737096        8.5779361003       27.2751233792  TIP3      1728            0.0000000000
     30085      1929  TIP3      OH2           -12.3836041683       12.7499279708       29.7564877410  TIP3      1729            0.0000000000
     30086      1929  TIP3      H1            -12.2137684013       12.5986926604       28.8068325336  TIP3      1729            0.0000000000
     30087      1929  TIP3      H2            -11.5863521561       12.3762065811       30.1814523770  TIP3      1729            0.0000000000
     30088      1930  TIP3      OH2           -13.6079615332        8.0419597534       30.6756302861  TIP3      1730            0.0000000000
     30089      1930  TIP3      H1            -13.1639915691        8.0133650328       29.8002225748  TIP3      1730            0.0000000000
     30090      1930  TIP3      H2            -13.1285357778        8.7597452476       31.1502594836  TIP3      1730            0.0000000000
     30091      1931  TIP3      OH2            -6.8629328579       13.9063214993       31.6083057577  TIP3      1731            0.0000000000
     30092      1931  TIP3      H1             -7.2765893882       14.6341719592       32.1057699679  TIP3      1731            0.0000000000
     30093      1931  TIP3      H2             -7.2959939801       13.1370139686       32.0299053752  TIP3      1731            0.0000000000
     30094      1932  TIP3      OH2           -12.3065163720       12.7399883400       35.1632570889  TIP3      1732            0.0000000000
     30095      1932  TIP3      H1            -13.0478123201       13.1594825733       35.6566031312  TIP3      1732            0.0000000000
     30096      1932  TIP3      H2            -12.7618821650       12.5688782718       34.3067346576  TIP3      1732            0.0000000000
     30097      1933  TIP3      OH2            -6.6458743384        8.2623424925       22.9409855230  TIP3      1733            0.0000000000
     30098      1933  TIP3      H1             -5.8308352320        8.5372842498       23.3910322400  TIP3      1733            0.0000000000
     30099      1933  TIP3      H2             -6.6055697767        8.7806950021       22.1196154667  TIP3      1733            0.0000000000
     30100      1934  TIP3      OH2           -15.4472754365        8.6699384673       34.5905353881  TIP3      1734            0.0000000000
     30101      1934  TIP3      H1            -15.4134102056        9.6010176848       34.8258338666  TIP3      1734            0.0000000000
     30102      1934  TIP3      H2            -16.1156545169        8.3645490643       35.2220363071  TIP3      1734            0.0000000000
     30103      1935  TIP3      OH2            -8.4291858562       14.7089709825       26.6371119926  TIP3      1735            0.0000000000
     30104      1935  TIP3      H1             -8.3303906917       15.4875063125       27.2170611089  TIP3      1735            0.0000000000
     30105      1935  TIP3      H2             -9.0957848089       15.0126364486       26.0014943400  TIP3      1735            0.0000000000
     30106      1936  TIP3      OH2           -14.1762563405       14.2672960009       36.3010483423  TIP3      1736            0.0000000000
     30107      1936  TIP3      H1            -14.2705230917       14.6781244577       35.4179433297  TIP3      1736            0.0000000000
     30108      1936  TIP3      H2            -15.1232830282       14.1494803735       36.5225057828  TIP3      1736            0.0000000000
     30109      1937  TIP3      OH2           -15.1608627824        8.2590953647       24.8422097452  TIP3      1737            0.0000000000
     30110      1937  TIP3      H1            -15.3720114769        9.1356934773       24.4425709476  TIP3      1737            0.0000000000
     30111      1937  TIP3      H2            -15.5275571415        7.6660969421       24.1729201219  TIP3      1737            0.0000000000
     30112      1938  TIP3      OH2            -1.8439866183       14.2157202670       21.1465686304  TIP3      1738            0.0000000000
     30113      1938  TIP3      H1             -2.0555566742       14.4554888427       22.0750826643  TIP3      1738            0.0000000000
     30114      1938  TIP3      H2             -1.0971602710       13.6208995241       21.2235713892  TIP3      1738            0.0000000000
     30115      1939  TIP3      OH2           -18.5141532802       11.0498024167       33.6376314956  TIP3      1739            0.0000000000
     30116      1939  TIP3      H1            -18.9002885245       10.9907437077       32.7450195920  TIP3      1739            0.0000000000
     30117      1939  TIP3      H2            -18.1089608031       10.1570921361       33.7262121897  TIP3      1739            0.0000000000
     30118      1940  TIP3      OH2           -18.5764568317       13.6288229366       30.4675597282  TIP3      1740            0.0000000000
     30119      1940  TIP3      H1            -17.6176791240       13.5661769522       30.3615760518  TIP3      1740            0.0000000000
     30120      1940  TIP3      H2            -18.6297087692       14.3878669654       31.0672805948  TIP3      1740            0.0000000000
     30121      1941  TIP3      OH2            -0.7276480807       14.3411859936       36.4456222333  TIP3      1741            0.0000000000
     30122      1941  TIP3      H1             -0.8638133956       13.4046543323       36.2367701747  TIP3      1741            0.0000000000
     30123      1941  TIP3      H2             -1.6511013430       14.5889377583       36.7017425795  TIP3      1741            0.0000000000
     30124      1942  TIP3      OH2            -9.8360677231       13.7137663227       35.1113145904  TIP3      1742            0.0000000000
     30125      1942  TIP3      H1             -9.7249790537       14.4437171896       35.7466998051  TIP3      1742            0.0000000000
     30126      1942  TIP3      H2            -10.7872144084       13.4495420726       35.1969412870  TIP3      1742            0.0000000000
     30127      1943  TIP3      OH2           -15.7955623448       16.4258139997       26.7780501905  TIP3      1743            0.0000000000
     30128      1943  TIP3      H1            -15.3977707890       16.1489474731       27.6323728529  TIP3      1743            0.0000000000
     30129      1943  TIP3      H2            -16.5881360946       15.8586124394       26.7463340925  TIP3      1743            0.0000000000
     30130      1944  TIP3      OH2            -3.8332698450        5.6437337102       36.5364919909  TIP3      1744            0.0000000000
     30131      1944  TIP3      H1             -4.3151481833        6.0389589042       35.7846565472  TIP3      1744            0.0000000000
     30132      1944  TIP3      H2             -3.7202545854        4.7194357140       36.2245567658  TIP3      1744            0.0000000000
     30133      1945  TIP3      OH2           -16.2880521863       12.2347633410       34.5350544814  TIP3      1745            0.0000000000
     30134      1945  TIP3      H1            -16.3170749375       11.9265692768       35.4673794015  TIP3      1745            0.0000000000
     30135      1945  TIP3      H2            -17.1819601447       11.9548451809       34.2199766870  TIP3      1745            0.0000000000
     30136      1946  TIP3      OH2           -13.5853592908        0.9455966880       30.5502480799  TIP3      1746            0.0000000000
     30137      1946  TIP3      H1            -14.4841904179        0.8353290388       30.1686924108  TIP3      1746            0.0000000000
     30138      1946  TIP3      H2            -13.8490488386        1.3992407363       31.3771743586  TIP3      1746            0.0000000000
     30139      1947  TIP3      OH2            -8.7546443913        0.4174735459       33.7374183717  TIP3      1747            0.0000000000
     30140      1947  TIP3      H1             -8.4429308993       -0.0352683474       34.5591926673  TIP3      1747            0.0000000000
     30141      1947  TIP3      H2             -9.7401033276        0.3571803189       33.8214375675  TIP3      1747            0.0000000000
     30142      1948  TIP3      OH2            -6.0483983799        4.3393040049       34.9032742267  TIP3      1748            0.0000000000
     30143      1948  TIP3      H1             -6.5816129338        4.2008246899       35.7256743478  TIP3      1748            0.0000000000
     30144      1948  TIP3      H2             -5.8153558620        5.2909532318       34.9117283110  TIP3      1748            0.0000000000
     30145      1949  TIP3      OH2            -9.2229607922        2.7922068063       21.4564145483  TIP3      1749            0.0000000000
     30146      1949  TIP3      H1             -9.8039353722        2.3564467089       22.0964151123  TIP3      1749            0.0000000000
     30147      1949  TIP3      H2             -9.8418522871        3.1827020943       20.8236094171  TIP3      1749            0.0000000000
     30148      1950  TIP3      OH2           -13.5462473760        5.5824871103       31.7365857918  TIP3      1750            0.0000000000
     30149      1950  TIP3      H1            -14.3222436472        5.6288708853       32.3317573409  TIP3      1750            0.0000000000
     30150      1950  TIP3      H2            -13.5521692941        6.5159814012       31.4080975737  TIP3      1750            0.0000000000
     30151      1951  TIP3      OH2           -13.7362278507        5.6550348426       26.8855231458  TIP3      1751            0.0000000000
     30152      1951  TIP3      H1            -14.6900511977        5.6550551093       26.6725310944  TIP3      1751            0.0000000000
     30153      1951  TIP3      H2            -13.3419627220        5.3934945662       26.0182272730  TIP3      1751            0.0000000000
     30154      1952  TIP3      OH2            -9.2709957327        6.6575954110       36.8454726513  TIP3      1752            0.0000000000
     30155      1952  TIP3      H1             -9.6542050197        5.8036097723       37.1355934732  TIP3      1752            0.0000000000
     30156      1952  TIP3      H2             -8.5009808112        6.7010857542       37.4379878993  TIP3      1752            0.0000000000
     30157      1953  TIP3      OH2           -15.8919306914        5.6539107556       33.0391111353  TIP3      1753            0.0000000000
     30158      1953  TIP3      H1            -15.7192263993        6.0353845931       33.9135914667  TIP3      1753            0.0000000000
     30159      1953  TIP3      H2            -16.3213919992        4.8152351836       33.2957652527  TIP3      1753            0.0000000000
     30160      1954  TIP3      OH2           -19.3277347969        2.9482810427       27.5809316769  TIP3      1754            0.0000000000
     30161      1954  TIP3      H1            -18.6815346933        3.0107649252       28.3072587633  TIP3      1754            0.0000000000
     30162      1954  TIP3      H2            -18.8491394908        3.3460762927       26.8389247823  TIP3      1754            0.0000000000
     30163      1955  TIP3      OH2            -7.9781865388        7.4335404001       32.6594682532  TIP3      1755            0.0000000000
     30164      1955  TIP3      H1             -7.4131731567        6.7818985359       32.1933576825  TIP3      1755            0.0000000000
     30165      1955  TIP3      H2             -8.4969409266        6.8637079564       33.2770209233  TIP3      1755            0.0000000000
     30166      1956  TIP3      OH2           -11.0918558444        3.4411440519       27.9219999752  TIP3      1756            0.0000000000
     30167      1956  TIP3      H1            -12.0469155971        3.2637009644       28.1048589568  TIP3      1756            0.0000000000
     30168      1956  TIP3      H2            -10.6135538506        2.7329382449       28.3984234268  TIP3      1756            0.0000000000
     30169      1957  TIP3      OH2           -16.4347872842        4.7996826610       26.5477441001  TIP3      1757            0.0000000000
     30170      1957  TIP3      H1            -17.0290995110        5.3212060680       25.9659201009  TIP3      1757            0.0000000000
     30171      1957  TIP3      H2            -16.0572305439        4.1330913942       25.9276194019  TIP3      1757            0.0000000000
     30172      1958  TIP3      OH2           -13.0829717807        5.0971458768       24.3253598994  TIP3      1758            0.0000000000
     30173      1958  TIP3      H1            -12.1278072748        5.0970539333       24.5281415382  TIP3      1758            0.0000000000
     30174      1958  TIP3      H2            -13.1671876988        5.7643723009       23.6189242274  TIP3      1758            0.0000000000
     30175      1959  TIP3      OH2            -6.7030856935        2.6976089072       30.9701676114  TIP3      1759            0.0000000000
     30176      1959  TIP3      H1             -7.3363168500        2.7623919945       31.7104852066  TIP3      1759            0.0000000000
     30177      1959  TIP3      H2             -7.0692542791        2.0021181692       30.4144382231  TIP3      1759            0.0000000000
     30178      1960  TIP3      OH2           -13.9009675429        6.4020180205       21.7193999700  TIP3      1760            0.0000000000
     30179      1960  TIP3      H1            -14.6551322497        5.8443006370       21.4837640346  TIP3      1760            0.0000000000
     30180      1960  TIP3      H2            -13.2081406949        6.1962688258       21.0825715075  TIP3      1760            0.0000000000
     30181      1961  TIP3      OH2            -3.8179612877       18.4956261652       37.2234052653  TIP3      1761            0.0000000000
     30182      1961  TIP3      H1             -3.5466171389       18.9059366552       36.3852822778  TIP3      1761            0.0000000000
     30183      1961  TIP3      H2             -2.9933451586       18.5438697908       37.7263082407  TIP3      1761            0.0000000000
     30184      1962  TIP3      OH2           -16.2350027619       10.9026377123       36.9353801080  TIP3      1762            0.0000000000
     30185      1962  TIP3      H1            -15.3787224799       10.9303497542       37.3960066849  TIP3      1762            0.0000000000
     30186      1962  TIP3      H2            -16.8319890982       10.4919163002       37.5877798653  TIP3      1762            0.0000000000
     30187      1963  TIP3      OH2            -9.4568739641        5.4142153943       29.7134991610  TIP3      1763            0.0000000000
     30188      1963  TIP3      H1             -9.9149522239        4.6345121999       29.3522571634  TIP3      1763            0.0000000000
     30189      1963  TIP3      H2            -10.0442196951        5.5910990525       30.4588286528  TIP3      1763            0.0000000000
     30190      1964  TIP3      OH2           -15.3100086156        2.2268966358       25.7912742411  TIP3      1764            0.0000000000
     30191      1964  TIP3      H1            -15.8888047960        1.5862193818       26.2690748420  TIP3      1764            0.0000000000
     30192      1964  TIP3      H2            -14.7951571211        1.6030183512       25.2608009986  TIP3      1764            0.0000000000
     30193      1965  TIP3      OH2           -11.2037079490        4.2758563933       31.9467179830  TIP3      1765            0.0000000000
     30194      1965  TIP3      H1            -12.0012697957        4.8562061162       31.9548826191  TIP3      1765            0.0000000000
     30195      1965  TIP3      H2            -10.5891016082        4.7612633839       32.5116674852  TIP3      1765            0.0000000000
     30196      1966  TIP3      OH2           -10.3986766105       10.6543856562       23.5313635867  TIP3      1766            0.0000000000
     30197      1966  TIP3      H1            -11.1672723722       10.4250766362       22.9975950484  TIP3      1766            0.0000000000
     30198      1966  TIP3      H2            -10.8107335457       11.1500737067       24.2702276371  TIP3      1766            0.0000000000
     30199      1967  TIP3      OH2            -3.2302816951       10.1773029566       32.6489700172  TIP3      1767            0.0000000000
     30200      1967  TIP3      H1             -2.7222619644       10.6415881190       31.9450324609  TIP3      1767            0.0000000000
     30201      1967  TIP3      H2             -4.1152730014       10.1678068694       32.2419103582  TIP3      1767            0.0000000000
     30202      1968  TIP3      OH2            -9.4602225926       11.0873729866       34.8057720902  TIP3      1768            0.0000000000
     30203      1968  TIP3      H1             -9.6478739243       10.7433971863       35.6841580418  TIP3      1768            0.0000000000
     30204      1968  TIP3      H2             -9.5492559767       12.0549092598       34.9458963597  TIP3      1768            0.0000000000
     30205      1969  TIP3      OH2           -15.5200760672       10.2129865242       29.1223835054  TIP3      1769            0.0000000000
     30206      1969  TIP3      H1            -15.1445181719        9.9713091650       28.2477978567  TIP3      1769            0.0000000000
     30207      1969  TIP3      H2            -15.1581045746        9.5359710026       29.7167276812  TIP3      1769            0.0000000000
     30208      1970  TIP3      OH2           -18.3406223833        8.4561054591       34.5824527217  TIP3      1770            0.0000000000
     30209      1970  TIP3      H1            -18.5780768997        8.0063449035       35.4163262628  TIP3      1770            0.0000000000
     30210      1970  TIP3      H2            -18.9525131043        8.0602564952       33.9299971612  TIP3      1770            0.0000000000
     30211      1971  TIP3      OH2           -11.6033231999        8.1348103650       36.6268486845  TIP3      1771            0.0000000000
     30212      1971  TIP3      H1            -12.0924026432        7.4976644542       36.0829440934  TIP3      1771            0.0000000000
     30213      1971  TIP3      H2            -10.7159457941        7.7049414826       36.6667570137  TIP3      1771            0.0000000000
     30214      1972  TIP3      OH2            -6.5795417785       13.2591274370       35.2367745010  TIP3      1772            0.0000000000
     30215      1972  TIP3      H1             -7.4046440532       13.2865977529       34.7419226121  TIP3      1772            0.0000000000
     30216      1972  TIP3      H2             -6.8211944655       13.7887938674       36.0299184110  TIP3      1772            0.0000000000
     30217      1973  TIP3      OH2            -1.0017968894       11.3853309323       35.9500321511  TIP3      1773            0.0000000000
     30218      1973  TIP3      H1             -1.9098491686       11.5742397631       35.6139622904  TIP3      1773            0.0000000000
     30219      1973  TIP3      H2             -0.4842729316       11.3721345240       35.1130197877  TIP3      1773            0.0000000000
     30220      1974  TIP3      OH2            -2.9512474047       14.2915169984       23.7726957115  TIP3      1774            0.0000000000
     30221      1974  TIP3      H1             -3.1137669987       13.8507914139       24.6259466793  TIP3      1774            0.0000000000
     30222      1974  TIP3      H2             -3.6960217004       13.9447926206       23.2645513182  TIP3      1774            0.0000000000
     30223      1975  TIP3      OH2            -5.7075921253        9.2361154475       30.8118520046  TIP3      1775            0.0000000000
     30224      1975  TIP3      H1             -6.6438711065        9.0500079745       30.6034989588  TIP3      1775            0.0000000000
     30225      1975  TIP3      H2             -5.2809748299        8.4583643966       30.4338116168  TIP3      1775            0.0000000000
     30226      1976  TIP3      OH2           -13.2747938989       13.6773878734       26.7724475685  TIP3      1776            0.0000000000
     30227      1976  TIP3      H1            -12.9094378843       14.5606064124       26.5495308764  TIP3      1776            0.0000000000
     30228      1976  TIP3      H2            -14.0777399794       13.6971282260       26.2381165230  TIP3      1776            0.0000000000
     30229      1977  TIP3      OH2           -17.0361700619        8.5192723370       21.7398437405  TIP3      1777            0.0000000000
     30230      1977  TIP3      H1            -17.2370875186        9.2665251261       21.1259474411  TIP3      1777            0.0000000000
     30231      1977  TIP3      H2            -17.8797846947        8.0630551445       21.6694817750  TIP3      1777            0.0000000000
     30232      1978  TIP3      OH2           -11.5845485839       11.5001675357       26.1451005039  TIP3      1778            0.0000000000
     30233      1978  TIP3      H1            -12.2258639047       12.2337918970       26.2311304718  TIP3      1778            0.0000000000
     30234      1978  TIP3      H2            -11.9642274026       10.7882581407       26.6698332916  TIP3      1778            0.0000000000
     30235      1979  TIP3      OH2           -11.2745136031       15.2733711538       33.1449856234  TIP3      1779            0.0000000000
     30236      1979  TIP3      H1            -10.5951940836       15.8984681157       32.8177380300  TIP3      1779            0.0000000000
     30237      1979  TIP3      H2            -10.7764013066       14.8025340444       33.8447237425  TIP3      1779            0.0000000000
     30238      1980  TIP3      OH2           -12.7738234268       16.3444719147       25.9541000429  TIP3      1780            0.0000000000
     30239      1980  TIP3      H1            -13.7203026412       16.3064333243       26.1437669938  TIP3      1780            0.0000000000
     30240      1980  TIP3      H2            -12.5574213688       17.2304581126       26.2966552606  TIP3      1780            0.0000000000
     30241      1981  TIP3      OH2            -8.1229775503       11.3597637580       32.4386759497  TIP3      1781            0.0000000000
     30242      1981  TIP3      H1             -8.5687398624       11.0974914836       33.2825618908  TIP3      1781            0.0000000000
     30243      1981  TIP3      H2             -7.5198508774       10.6092611588       32.3275568711  TIP3      1781            0.0000000000
     30244      1982  TIP3      OH2            -4.7675900796       15.8358160607       34.6634666978  TIP3      1782            0.0000000000
     30245      1982  TIP3      H1             -5.6607719379       15.4730866326       34.5141287329  TIP3      1782            0.0000000000
     30246      1982  TIP3      H2             -4.7093059359       16.5358411198       33.9736718823  TIP3      1782            0.0000000000
     30247      1983  TIP3      OH2           -16.5967055654        3.1665782210       34.3231614727  TIP3      1783            0.0000000000
     30248      1983  TIP3      H1            -17.2456835566        3.6383305729       34.8713343663  TIP3      1783            0.0000000000
     30249      1983  TIP3      H2            -16.6751752265        2.2675584761       34.6903078004  TIP3      1783            0.0000000000
     30250      1984  TIP3      OH2            -4.4178594050       11.0423452476       23.8776005013  TIP3      1784            0.0000000000
     30251      1984  TIP3      H1             -4.7170259211       10.2169342222       24.3042421584  TIP3      1784            0.0000000000
     30252      1984  TIP3      H2             -3.4543446869       10.9137657292       23.8228813650  TIP3      1784            0.0000000000
     30253      1985  TIP3      OH2           -17.2321148175       14.9647160769       32.5065663079  TIP3      1785            0.0000000000
     30254      1985  TIP3      H1            -16.6133362009       14.2247287638       32.5785129722  TIP3      1785            0.0000000000
     30255      1985  TIP3      H2            -17.1449408898       15.3443460967       33.3897614715  TIP3      1785            0.0000000000
     30256      1986  TIP3      OH2           -12.6887438531       13.3311288636       22.6335389602  TIP3      1786            0.0000000000
     30257      1986  TIP3      H1            -11.7151069563       13.3307771349       22.5972148752  TIP3      1786            0.0000000000
     30258      1986  TIP3      H2            -12.8651130541       14.2634385736       22.3296075113  TIP3      1786            0.0000000000
     30259      1987  TIP3      OH2           -15.6082601030       10.5553343689       23.2572239251  TIP3      1787            0.0000000000
     30260      1987  TIP3      H1            -16.5555925303       10.5087692726       23.0400359095  TIP3      1787            0.0000000000
     30261      1987  TIP3      H2            -15.3658689317       11.3633903263       22.7676889744  TIP3      1787            0.0000000000
     30262      1988  TIP3      OH2            -8.1457502573        3.2134389465       33.2143836132  TIP3      1788            0.0000000000
     30263      1988  TIP3      H1             -7.4127619309        3.4909663734       33.8010941055  TIP3      1788            0.0000000000
     30264      1988  TIP3      H2             -8.3433528368        2.3147043374       33.5458024644  TIP3      1788            0.0000000000
     30265      1989  TIP3      OH2           -10.0078161161       15.0206376867       23.3277884704  TIP3      1789            0.0000000000
     30266      1989  TIP3      H1            -10.7625893643       15.5797066158       23.0863745761  TIP3      1789            0.0000000000
     30267      1989  TIP3      H2             -9.4972337872       15.0077100512       22.5204640883  TIP3      1789            0.0000000000
     30268      1990  TIP3      OH2           -10.6725856996        4.3893783596       25.1921800080  TIP3      1790            0.0000000000
     30269      1990  TIP3      H1             -9.7581920080        4.6611284125       25.0654129111  TIP3      1790            0.0000000000
     30270      1990  TIP3      H2            -10.6880110862        3.9308778104       26.0589404271  TIP3      1790            0.0000000000
     30271      1991  TIP3      OH2            -9.3430313458        5.6290470713       34.2045869436  TIP3      1791            0.0000000000
     30272      1991  TIP3      H1             -9.1930440267        5.8769900677       35.1421433944  TIP3      1791            0.0000000000
     30273      1991  TIP3      H2             -8.9629666136        4.7310557903       34.1253230376  TIP3      1791            0.0000000000
     30274      1992  TIP3      OH2            -9.4722268931        1.5072171038       25.7207988331  TIP3      1792            0.0000000000
     30275      1992  TIP3      H1             -9.8983648834        1.6638378861       26.5841205808  TIP3      1792            0.0000000000
     30276      1992  TIP3      H2             -8.5390681847        1.6693904424       25.9447283571  TIP3      1792            0.0000000000
     30277      1993  TIP3      OH2           -13.7542428430        2.5780249714       22.8923637318  TIP3      1793            0.0000000000
     30278      1993  TIP3      H1            -13.8658740481        3.4020421166       23.3899042323  TIP3      1793            0.0000000000
     30279      1993  TIP3      H2            -12.8062715674        2.4013730976       23.0690100144  TIP3      1793            0.0000000000
     30280      1994  TIP3      OH2            -3.6398546808        3.2097160127       35.2133884377  TIP3      1794            0.0000000000
     30281      1994  TIP3      H1             -4.5708270352        3.4037413571       34.9614143034  TIP3      1794            0.0000000000
     30282      1994  TIP3      H2             -3.1828015690        3.1995129378       34.3485233049  TIP3      1794            0.0000000000
     30283      1995  TIP3      OH2           -15.4728985074       13.0238123580       21.8571558860  TIP3      1795            0.0000000000
     30284      1995  TIP3      H1            -14.6426934684       13.3451738011       22.2908023593  TIP3      1795            0.0000000000
     30285      1995  TIP3      H2            -15.1345030088       12.7753856165       20.9933297379  TIP3      1795            0.0000000000
     30286      1996  TIP3      OH2            -3.9213608591       16.2746267620       30.7165470260  TIP3      1796            0.0000000000
     30287      1996  TIP3      H1             -3.9072391010       16.9164742771       29.9738138417  TIP3      1796            0.0000000000
     30288      1996  TIP3      H2             -2.9643721257       16.1880197760       30.8838510317  TIP3      1796            0.0000000000
     30289      1997  TIP3      OH2           -16.2541807703        0.4332211530       29.9482337530  TIP3      1797            0.0000000000
     30290      1997  TIP3      H1            -16.2535137565        0.3403404755       28.9759871677  TIP3      1797            0.0000000000
     30291      1997  TIP3      H2            -16.4690348660       -0.4905907068       30.2225485866  TIP3      1797            0.0000000000
     30292      1998  TIP3      OH2           -17.5254231226       14.4328689765       25.4701143632  TIP3      1798            0.0000000000
     30293      1998  TIP3      H1            -18.4152616730       14.7939191339       25.5407426271  TIP3      1798            0.0000000000
     30294      1998  TIP3      H2            -17.2138682778       14.8447207458       24.6445922226  TIP3      1798            0.0000000000
     30295      1999  TIP3      OH2           -18.2596067215       16.9945328913       37.1417511510  TIP3      1799            0.0000000000
     30296      1999  TIP3      H1            -17.5626883372       16.8578924511       37.8277453115  TIP3      1799            0.0000000000
     30297      1999  TIP3      H2            -18.4751205046       16.0495585328       36.9812317469  TIP3      1799            0.0000000000
     30298      2000  TIP3      OH2           -13.3850220029       15.7950036363       38.5491439935  TIP3      1800            0.0000000000
     30299      2000  TIP3      H1            -12.5092327762       15.4536876500       38.8089386129  TIP3      1800            0.0000000000
     30300      2000  TIP3      H2            -13.4816719838       15.4127748959       37.6522627083  TIP3      1800            0.0000000000
     30301      2001  TIP3      OH2            -7.0457237296       14.4984455064       37.5534865729  TIP3      1801            0.0000000000
     30302      2001  TIP3      H1             -7.4113443784       13.6251855283       37.8390891693  TIP3      1801            0.0000000000
     30303      2001  TIP3      H2             -6.1954474550       14.5116703337       38.0460743927  TIP3      1801            0.0000000000
     30304      2002  TIP3      OH2            -4.6660865335       15.2868248285       20.6201155907  TIP3      1802            0.0000000000
     30305      2002  TIP3      H1             -5.2721117163       14.5264330036       20.6564693328  TIP3      1802            0.0000000000
     30306      2002  TIP3      H2             -3.8364843239       14.9109351872       20.9359408532  TIP3      1802            0.0000000000
     30307      2003  TIP3      OH2           -18.6163028716       10.7963455416       38.3457361268  TIP3      1803            0.0000000000
     30308      2003  TIP3      H1            -19.0046653861        9.9100847144       38.2812667900  TIP3      1803            0.0000000000
     30309      2003  TIP3      H2            -18.7868266984       11.1298762827       37.4377715610  TIP3      1803            0.0000000000
     30310      2004  TIP3      OH2           -11.7866138539       10.7947876657       37.0485253250  TIP3      1804            0.0000000000
     30311      2004  TIP3      H1            -11.8776255926       11.2573619439       36.1866312965  TIP3      1804            0.0000000000
     30312      2004  TIP3      H2            -11.8295630817        9.8341504139       36.8104999915  TIP3      1804            0.0000000000
     30313      2005  TIP3      OH2            -5.9297021972       10.5142057304       35.0623698285  TIP3      1805            0.0000000000
     30314      2005  TIP3      H1             -5.0228979582       10.8876759340       35.1455657697  TIP3      1805            0.0000000000
     30315      2005  TIP3      H2             -6.4061184018       11.3681494794       35.0899275696  TIP3      1805            0.0000000000
     30316      2006  TIP3      OH2           -17.0928219011        7.9879351540       37.7294327304  TIP3      1806            0.0000000000
     30317      2006  TIP3      H1            -16.5354753219        7.2028171581       37.6845947463  TIP3      1806            0.0000000000
     30318      2006  TIP3      H2            -16.8674251876        8.3464550240       38.6137045514  TIP3      1806            0.0000000000
     30319      2007  TIP3      OH2           -13.5829629402        6.8714018782       34.4966507920  TIP3      1807            0.0000000000
     30320      2007  TIP3      H1            -14.1975521651        7.6334386364       34.5179898065  TIP3      1807            0.0000000000
     30321      2007  TIP3      H2            -12.8292382974        7.2583584482       34.0086973114  TIP3      1807            0.0000000000
     30322      2008  TIP3      OH2            -8.0530105920        9.7507620566       38.1749865442  TIP3      1808            0.0000000000
     30323      2008  TIP3      H1             -7.4984679033        9.1986827734       37.6007260801  TIP3      1808            0.0000000000
     30324      2008  TIP3      H2             -8.3323681982        9.1102329237       38.8571793098  TIP3      1808            0.0000000000
     30325      2009  TIP3      OH2            -2.3483316477        9.6434920787       20.1861509225  TIP3      1809            0.0000000000
     30326      2009  TIP3      H1             -2.8897396140        9.1719869847       19.5405339183  TIP3      1809            0.0000000000
     30327      2009  TIP3      H2             -3.0205397459        9.8655618312       20.8508370826  TIP3      1809            0.0000000000
     30328      2010  TIP3      OH2           -12.8801603366        4.4212658539       35.4415967856  TIP3      1810            0.0000000000
     30329      2010  TIP3      H1            -12.7721607162        3.7189609130       34.7637457510  TIP3      1810            0.0000000000
     30330      2010  TIP3      H2            -13.1603117915        5.2120162762       34.9246586529  TIP3      1810            0.0000000000
     30331      2011  TIP3      OH2           -12.5077061205        2.4478016070       33.4876001551  TIP3      1811            0.0000000000
     30332      2011  TIP3      H1            -12.0620575068        2.9552633664       32.7674705096  TIP3      1811            0.0000000000
     30333      2011  TIP3      H2            -13.4320441839        2.3837532944       33.1600239562  TIP3      1811            0.0000000000
     30334      2012  TIP3      OH2           -11.4098063171        8.2255221992       33.4034991890  TIP3      1812            0.0000000000
     30335      2012  TIP3      H1            -10.4984258273        8.5443587760       33.4331333341  TIP3      1812            0.0000000000
     30336      2012  TIP3      H2            -11.8686331133        8.9526582657       32.9362111469  TIP3      1812            0.0000000000
     30337      2013  TIP3      OH2            -6.7744898618        5.6547719887       38.5267831165  TIP3      1813            0.0000000000
     30338      2013  TIP3      H1             -6.4766457493        4.7511715432       38.3219110564  TIP3      1813            0.0000000000
     30339      2013  TIP3      H2             -5.9615387076        6.1325792855       38.7518804464  TIP3      1813            0.0000000000
     30340      2014  TIP3      OH2            -5.1145821629        8.8561808809       36.9870252522  TIP3      1814            0.0000000000
     30341      2014  TIP3      H1             -5.5422280959        9.3662376253       36.2746276712  TIP3      1814            0.0000000000
     30342      2014  TIP3      H2             -4.1705081842        8.8717074117       36.7319861389  TIP3      1814            0.0000000000
     30343      2015  TIP3      OH2           -14.3659635862        5.2431510948       37.5830224678  TIP3      1815            0.0000000000
     30344      2015  TIP3      H1            -15.2059992069        4.7848968029       37.3805014637  TIP3      1815            0.0000000000
     30345      2015  TIP3      H2            -13.7897789044        4.8741573494       36.8708994839  TIP3      1815            0.0000000000
     30346      2016  TIP3      OH2           -11.4615833361        0.0398797729       33.5038519865  TIP3      1816            0.0000000000
     30347      2016  TIP3      H1            -11.8092950906        0.9545062577       33.5990089661  TIP3      1816            0.0000000000
     30348      2016  TIP3      H2            -12.2562007857       -0.3867693922       33.1427602735  TIP3      1816            0.0000000000
     30349      2017  TIP3      OH2           -10.6490347660        4.3328737597       37.6299719454  TIP3      1817            0.0000000000
     30350      2017  TIP3      H1            -11.2325386754        4.1100957571       38.3895192448  TIP3      1817            0.0000000000
     30351      2017  TIP3      H2            -11.2741452236        4.1969019756       36.8995263824  TIP3      1817            0.0000000000
     30352      2018  TIP3      OH2            -7.8517452764        3.5641325291       36.7502555505  TIP3      1818            0.0000000000
     30353      2018  TIP3      H1             -8.7823420667        3.6686945699       37.0070706493  TIP3      1818            0.0000000000
     30354      2018  TIP3      H2             -7.5277096473        2.9712757625       37.4662602128  TIP3      1818            0.0000000000
     30355      2019  TIP3      OH2            -6.3985208470        2.1005802844       38.3946919875  TIP3      1819            0.0000000000
     30356      2019  TIP3      H1             -6.3415383929        1.1230897689       38.3669527637  TIP3      1819            0.0000000000
     30357      2019  TIP3      H2             -6.4581189297        2.2818264036       39.3521315404  TIP3      1819            0.0000000000
     30358      2020  TIP3      OH2           -16.4941942124        3.4219731068       37.7207758733  TIP3      1820            0.0000000000
     30359      2020  TIP3      H1            -16.5010034043        2.6350111724       37.1456940053  TIP3      1820            0.0000000000
     30360      2020  TIP3      H2            -16.7270078359        3.0444339197       38.6080566328  TIP3      1820            0.0000000000
     30361      2021  TIP3      OH2           -11.8437210024       -0.3197592124       36.3591674786  TIP3      1821            0.0000000000
     30362      2021  TIP3      H1            -11.1224933678       -0.9217124916       36.6307513199  TIP3      1821            0.0000000000
     30363      2021  TIP3      H2            -11.7283151572       -0.3638592812       35.3878285948  TIP3      1821            0.0000000000
     30364      2022  TIP3      OH2           -11.7139027598        0.9011061287       39.0820637147  TIP3      1822            0.0000000000
     30365      2022  TIP3      H1            -11.7916747078        0.6465926930       38.1421556149  TIP3      1822            0.0000000000
     30366      2022  TIP3      H2            -11.9964856858        1.8405589528       39.0816890097  TIP3      1822            0.0000000000
     30367      2023  TIP3      OH2           -19.4722100478       17.8473985061       26.3148562795  TIP3      1823            0.0000000000
     30368      2023  TIP3      H1            -20.1696314126       17.2608673692       25.9495981095  TIP3      1823            0.0000000000
     30369      2023  TIP3      H2            -19.1052335184       17.2907496320       27.0316087540  TIP3      1823            0.0000000000
     30370      2024  TIP3      OH2           -18.5364553774       16.1706409931       28.2047444166  TIP3      1824            0.0000000000
     30371      2024  TIP3      H1            -19.1253233125       15.4134561611       28.3626141433  TIP3      1824            0.0000000000
     30372      2024  TIP3      H2            -17.8802604832       16.1430233143       28.9343852586  TIP3      1824            0.0000000000
     30373      2025  TIP3      OH2            -1.1111419568       16.8923411180       31.0422934258  TIP3      1825            0.0000000000
     30374      2025  TIP3      H1             -0.9096918913       16.8228050564       31.9861267858  TIP3      1825            0.0000000000
     30375      2025  TIP3      H2             -0.4245857302       17.5161678309       30.7681132463  TIP3      1825            0.0000000000
     30376      2026  TIP3      OH2            -1.6415360175       16.3304787935       33.8856108009  TIP3      1826            0.0000000000
     30377      2026  TIP3      H1             -1.9836022322       15.5278585438       33.4215893583  TIP3      1826            0.0000000000
     30378      2026  TIP3      H2             -1.4241644332       15.9421751218       34.7524577770  TIP3      1826            0.0000000000
     30379      2027  TIP3      OH2            -2.8102770553       12.0539242780       38.7803314882  TIP3      1827            0.0000000000
     30380      2027  TIP3      H1             -3.7616231261       12.0961758673       38.9996019807  TIP3      1827            0.0000000000
     30381      2027  TIP3      H2             -2.4903042529       12.8601919481       39.2378094992  TIP3      1827            0.0000000000
     30382      2028  TIP3      OH2            -1.5153592936       10.3806486971       23.9981788528  TIP3      1828            0.0000000000
     30383      2028  TIP3      H1             -0.5871896301       10.6857311786       24.0631386743  TIP3      1828            0.0000000000
     30384      2028  TIP3      H2             -1.6043744794        9.8392205745       24.8063974539  TIP3      1828            0.0000000000
     30385      2029  TIP3      OH2            -1.4334699354        8.5956753337       26.0791327589  TIP3      1829            0.0000000000
     30386      2029  TIP3      H1             -2.0681938439        8.1843788648       26.6790754932  TIP3      1829            0.0000000000
     30387      2029  TIP3      H2             -0.6846008551        8.7816547638       26.6920802064  TIP3      1829            0.0000000000
     30388      2030  TIP3      OH2            -1.6261882563       11.2017875813       30.8414345147  TIP3      1830            0.0000000000
     30389      2030  TIP3      H1             -0.8565366741       10.6390165865       30.6058234859  TIP3      1830            0.0000000000
     30390      2030  TIP3      H2             -1.3586842544       12.0862031780       30.5334953761  TIP3      1830            0.0000000000
     30391      2031  TIP3      OH2            -2.9960678859       14.1003878840       33.1493293369  TIP3      1831            0.0000000000
     30392      2031  TIP3      H1             -3.7145351459       14.5448565330       33.6272537855  TIP3      1831            0.0000000000
     30393      2031  TIP3      H2             -3.4351594976       13.8654668321       32.2902781049  TIP3      1831            0.0000000000
     30394      2032  TIP3      OH2            -0.8581252900        8.3832730954       22.1322223711  TIP3      1832            0.0000000000
     30395      2032  TIP3      H1             -1.3129978731        8.7275046700       21.3395784142  TIP3      1832            0.0000000000
     30396      2032  TIP3      H2             -1.0135067880        9.1143114194       22.7572339435  TIP3      1832            0.0000000000
     30397      2033  TIP3      OH2           -18.5334499506        9.3911847592       30.7536264248  TIP3      1833            0.0000000000
     30398      2033  TIP3      H1            -18.5139932986        9.1339120310       29.7985993025  TIP3      1833            0.0000000000
     30399      2033  TIP3      H2            -17.6633194455        9.0353859007       31.0387602665  TIP3      1833            0.0000000000
     30400      2034  TIP3      OH2            -2.4115487875        9.0135147660       36.2630387786  TIP3      1834            0.0000000000
     30401      2034  TIP3      H1             -1.9302920172        8.1585777563       36.3953265804  TIP3      1834            0.0000000000
     30402      2034  TIP3      H2             -1.7045047039        9.6797342476       36.1198710855  TIP3      1834            0.0000000000
     30403      2035  TIP3      OH2            -1.3809245421        6.5400233167       36.6432439539  TIP3      1835            0.0000000000
     30404      2035  TIP3      H1             -2.3236845624        6.2716426460       36.5314487122  TIP3      1835            0.0000000000
     30405      2035  TIP3      H2             -0.9008592321        5.6837403557       36.7839484068  TIP3      1835            0.0000000000
     30406      2036  TIP3      OH2            -2.9646293291        5.4765559282       30.4808705939  TIP3      1836            0.0000000000
     30407      2036  TIP3      H1             -1.9874997458        5.5879795932       30.5037148737  TIP3      1836            0.0000000000
     30408      2036  TIP3      H2             -3.1617608756        5.2889105442       31.4120140115  TIP3      1836            0.0000000000
     30409      2037  TIP3      OH2            -2.8986806406        6.0321355703       33.2275293746  TIP3      1837            0.0000000000
     30410      2037  TIP3      H1             -3.7963842459        6.3537094038       33.4264926573  TIP3      1837            0.0000000000
     30411      2037  TIP3      H2             -2.4495366100        6.8552347810       32.9248152210  TIP3      1837            0.0000000000
     30412      2038  TIP3      OH2           -18.6778578366        4.3392728200       36.5674232753  TIP3      1838            0.0000000000
     30413      2038  TIP3      H1            -17.8403135223        4.3005410344       37.0733338688  TIP3      1838            0.0000000000
     30414      2038  TIP3      H2            -19.1331769213        3.5345418912       36.8906533485  TIP3      1838            0.0000000000
     30415      2039  TIP3      OH2            -0.7147925600        0.3409209860       38.5261505768  TIP3      1839            0.0000000000
     30416      2039  TIP3      H1             -0.3710811150       -0.4553997536       38.0817726435  TIP3      1839            0.0000000000
     30417      2039  TIP3      H2             -0.8274639830        0.9641015410       37.7652935900  TIP3      1839            0.0000000000
     30418      2040  TIP3      OH2           -17.7500650001        2.7883701194       30.2394110898  TIP3      1840            0.0000000000
     30419      2040  TIP3      H1            -17.3724812812        1.8838889977       30.2319422832  TIP3      1840            0.0000000000
     30420      2040  TIP3      H2            -16.9678812971        3.3484453124       30.1149269382  TIP3      1840            0.0000000000
     30421      2041  TIP3      OH2           -19.1395314181        5.7618215356       30.8610290795  TIP3      1841            0.0000000000
     30422      2041  TIP3      H1            -18.5365968492        5.5576605460       30.1184247354  TIP3      1841            0.0000000000
     30423      2041  TIP3      H2            -18.7153405423        6.5766159449       31.1765413568  TIP3      1841            0.0000000000
     30424      2042  TIP3      OH2            -1.4128566660        2.2642638333       36.7308613258  TIP3      1842            0.0000000000
     30425      2042  TIP3      H1             -2.2226240847        2.7667073832       36.9586862199  TIP3      1842            0.0000000000
     30426      2042  TIP3      H2             -1.7380428239        1.7799518530       35.9525985326  TIP3      1842            0.0000000000
     30427      2043  TIP3      OH2           -18.8470815464        2.1368423032       24.7427823360  TIP3      1843            0.0000000000
     30428      2043  TIP3      H1            -19.7351413880        1.8147121286       24.9357776002  TIP3      1843            0.0000000000
     30429      2043  TIP3      H2            -18.9219984639        2.5434867486       23.8717555299  TIP3      1843            0.0000000000
     30430      2044  TIP3      OH2           -19.0048257598        0.6491447348       33.0975785422  TIP3      1844            0.0000000000
     30431      2044  TIP3      H1            -19.5596312401        0.2631211701       33.7967948759  TIP3      1844            0.0000000000
     30432      2044  TIP3      H2            -19.6370622891        1.1565976625       32.5558563274  TIP3      1844            0.0000000000
     30433      2045  TIP3      OH2           -16.8563585709       13.9167278169       37.0058778049  TIP3      1845            0.0000000000
     30434      2045  TIP3      H1            -17.7352874420       13.9858615838       36.5986223430  TIP3      1845            0.0000000000
     30435      2045  TIP3      H2            -17.0044783436       13.3016277164       37.7292289116  TIP3      1845            0.0000000000
     30436      2046  TIP3      OH2           -13.8800781477       15.4031639254       33.8344585226  TIP3      1846            0.0000000000
     30437      2046  TIP3      H1            -13.8273803767       16.2610818402       33.3600411996  TIP3      1846            0.0000000000
     30438      2046  TIP3      H2            -12.9503448859       15.1133125139       33.7551114774  TIP3      1846            0.0000000000
     30439      2047  TIP3      OH2            -9.8194802730       16.4013616000       36.2328494105  TIP3      1847            0.0000000000
     30440      2047  TIP3      H1             -9.7117980778       16.1301775634       37.1712732281  TIP3      1847            0.0000000000
     30441      2047  TIP3      H2             -8.8978028723       16.7000356710       36.0394752913  TIP3      1847            0.0000000000
     30442      2048  TIP3      OH2            -7.4857106927       17.6125377675       35.8469957717  TIP3      1848            0.0000000000
     30443      2048  TIP3      H1             -6.7391622618       17.4269438313       35.2673456303  TIP3      1848            0.0000000000
     30444      2048  TIP3      H2             -7.0633196612       18.0874130597       36.6008514019  TIP3      1848            0.0000000000
     30445      2049  TIP3      OH2            -2.3291583178        0.0995356463       34.8140003581  TIP3      1849            0.0000000000
     30446      2049  TIP3      H1             -2.9844815674        0.5593018529       34.2413781997  TIP3      1849            0.0000000000
     30447      2049  TIP3      H2             -2.2817100475       -0.7645811969       34.3437150430  TIP3      1849            0.0000000000
     30448      2050  TIP3      OH2           -16.4824201671       18.3132230069       33.5324682555  TIP3      1850            0.0000000000
     30449      2050  TIP3      H1            -17.1676017952       18.9611033809       33.2801165027  TIP3      1850            0.0000000000
     30450      2050  TIP3      H2            -16.4829117308       18.3575789822       34.4962122162  TIP3      1850            0.0000000000
     30451      2051  TIP3      OH2           -14.1668922972       17.7051910282       32.3637322377  TIP3      1851            0.0000000000
     30452      2051  TIP3      H1            -15.0724191164       17.9551276028       32.6547091624  TIP3      1851            0.0000000000
     30453      2051  TIP3      H2            -13.9653208910       18.3614933313       31.6658319960  TIP3      1851            0.0000000000
     30454      2052  TIP3      OH2            -9.6637670295       17.2466130262       31.9724137559  TIP3      1852            0.0000000000
     30455      2052  TIP3      H1            -10.3699852643       17.8066805818       31.6295139489  TIP3      1852            0.0000000000
     30456      2052  TIP3      H2             -9.2328859700       17.8737180144       32.5967445520  TIP3      1852            0.0000000000
     30457      2053  TIP3      OH2            -7.3216555380       16.1547601500       33.0439646715  TIP3      1853            0.0000000000
     30458      2053  TIP3      H1             -7.9691931070       16.5887891218       32.4646503581  TIP3      1853            0.0000000000
     30459      2053  TIP3      H2             -6.5091189983       16.6315446332       32.8169963873  TIP3      1853            0.0000000000
     30460      2054  TIP3      OH2            -4.6821903425       17.7463719026       32.8496875735  TIP3      1854            0.0000000000
     30461      2054  TIP3      H1             -4.6888703042       18.6495833713       32.4825256379  TIP3      1854            0.0000000000
     30462      2054  TIP3      H2             -4.4370622027       17.2024638724       32.0685893561  TIP3      1854            0.0000000000
     30463      2055  TIP3      OH2           -16.9493458890       16.5569892166       30.3169103792  TIP3      1855            0.0000000000
     30464      2055  TIP3      H1            -17.0732605230       15.9781145223       31.0993382831  TIP3      1855            0.0000000000
     30465      2055  TIP3      H2            -16.0340504515       16.3206342523       30.0418541628  TIP3      1855            0.0000000000
     30466      2056  TIP3      OH2           -14.7500061950       15.6328243062       29.1361956891  TIP3      1856            0.0000000000
     30467      2056  TIP3      H1            -14.8845038133       14.7056366283       29.4146532267  TIP3      1856            0.0000000000
     30468      2056  TIP3      H2            -13.8668989023       15.7773014972       29.5385165092  TIP3      1856            0.0000000000
     30469      2057  TIP3      OH2           -12.4754578610       15.5575208316       30.4656113971  TIP3      1857            0.0000000000
     30470      2057  TIP3      H1            -12.2119684675       14.6401237409       30.2494546972  TIP3      1857            0.0000000000
     30471      2057  TIP3      H2            -12.1678261493       15.6274928321       31.3828478526  TIP3      1857            0.0000000000
     30472      2058  TIP3      OH2            -9.1661297052        1.5616605496       28.6800227631  TIP3      1858            0.0000000000
     30473      2058  TIP3      H1             -9.7533399478        1.0022185272       29.2225775026  TIP3      1858            0.0000000000
     30474      2058  TIP3      H2             -8.3145781202        1.1046813343       28.7792998095  TIP3      1858            0.0000000000
     30475      2059  TIP3      OH2            -3.5902244694       -0.5482308160       28.8909386928  TIP3      1859            0.0000000000
     30476      2059  TIP3      H1             -3.0533749891        0.1063645195       28.3930696596  TIP3      1859            0.0000000000
     30477      2059  TIP3      H2             -4.4538701089       -0.4591442807       28.4462883281  TIP3      1859            0.0000000000
     30478      2060  TIP3      OH2           -16.4164137049        0.1543882135       27.0221720209  TIP3      1860            0.0000000000
     30479      2060  TIP3      H1            -17.3260197086        0.1248161718       26.6782879995  TIP3      1860            0.0000000000
     30480      2060  TIP3      H2            -16.0872709067       -0.7272012358       26.7444757194  TIP3      1860            0.0000000000
     30481      2061  TIP3      OH2           -18.0864074541       -0.1377050320       22.5798449467  TIP3      1861            0.0000000000
     30482      2061  TIP3      H1            -17.6499861048        0.4145165797       21.9037875662  TIP3      1861            0.0000000000
     30483      2061  TIP3      H2            -18.0233892199        0.4328763939       23.3576891355  TIP3      1861            0.0000000000
     30484      2062  TIP3      OH2           -12.1327864941       -0.3342661916       26.7406428922  TIP3      1862            0.0000000000
     30485      2062  TIP3      H1            -11.2731975192       -0.5394478334       26.3310962717  TIP3      1862            0.0000000000
     30486      2062  TIP3      H2            -11.8854105315       -0.2171314883       27.6691634604  TIP3      1862            0.0000000000
     30487      2063  TIP3      OH2            -6.5527413557        0.3370858778       28.2234930436  TIP3      1863            0.0000000000
     30488      2063  TIP3      H1             -6.3006058830        0.3280710246       27.2747363281  TIP3      1863            0.0000000000
     30489      2063  TIP3      H2             -7.0544940511       -0.5053665974       28.3127048861  TIP3      1863            0.0000000000
     30490      2064  TIP3      OH2           -18.1676206354       15.9867825099       23.2324009051  TIP3      1864            0.0000000000
     30491      2064  TIP3      H1            -18.2366084068       16.5101362179       22.4162874141  TIP3      1864            0.0000000000
     30492      2064  TIP3      H2            -17.9650858290       16.6960603891       23.8501742391  TIP3      1864            0.0000000000
     30493      2065  TIP3      OH2           -11.1398782961        2.2651126915       23.4559589838  TIP3      1865            0.0000000000
     30494      2065  TIP3      H1            -10.7802785867        1.7324594262       24.1929843382  TIP3      1865            0.0000000000
     30495      2065  TIP3      H2            -10.8960500966        3.1549997594       23.7733924170  TIP3      1865            0.0000000000
     30496      2066  TIP3      OH2            -2.4894348348       16.5912943785       25.0937121037  TIP3      1866            0.0000000000
     30497      2066  TIP3      H1             -2.6283187877       15.8592406699       24.4579672058  TIP3      1866            0.0000000000
     30498      2066  TIP3      H2             -2.7138696110       17.3488716984       24.5031126756  TIP3      1866            0.0000000000
     30499      2067  TIP3      OH2           -16.8096240353        0.7540885665       36.3243704120  TIP3      1867            0.0000000000
     30500      2067  TIP3      H1            -17.3341215396       -0.0640967852       36.4106790901  TIP3      1867            0.0000000000
     30501      2067  TIP3      H2            -16.1784420014        0.6494430342       37.0676862952  TIP3      1867            0.0000000000
     30502      2068  TIP3      OH2           -14.8879660724        0.0768154930       38.2987886018  TIP3      1868            0.0000000000
     30503      2068  TIP3      H1            -13.9381508053        0.0025791682       38.0975205577  TIP3      1868            0.0000000000
     30504      2068  TIP3      H2            -15.0360444493       -0.8319563986       38.6095928029  TIP3      1868            0.0000000000
     30505      2069  TIP3      OH2            -6.3385265538       -0.6318674356       38.2485129688  TIP3      1869            0.0000000000
     30506      2069  TIP3      H1             -6.1878179349       -1.1985600801       39.0384395646  TIP3      1869            0.0000000000
     30507      2069  TIP3      H2             -5.4291646062       -0.5906587805       37.8757382993  TIP3      1869            0.0000000000
     30508      2070  TIP3      OH2            -3.0478950524       15.5384013940       36.6044181728  TIP3      1870            0.0000000000
     30509      2070  TIP3      H1             -3.6243084683       15.4510690490       35.8150703602  TIP3      1870            0.0000000000
     30510      2070  TIP3      H2             -3.4349941421       16.3436607198       36.9759310244  TIP3      1870            0.0000000000
     30511      2071  TIP3      OH2             2.3693493869        8.2429115861       31.6741739886  TIP3      1871            0.0000000000
     30512      2071  TIP3      H1              2.3008344597        7.4298589922       32.2082400302  TIP3      1871            0.0000000000
     30513      2071  TIP3      H2              3.0541722321        8.7133525365       32.1718052570  TIP3      1871            0.0000000000
     30514      2072  TIP3      OH2            13.6428093813       11.4530064822       28.7795597953  TIP3      1872            0.0000000000
     30515      2072  TIP3      H1             13.6886766759       10.7833363467       29.4752053320  TIP3      1872            0.0000000000
     30516      2072  TIP3      H2             14.1167097216       12.1714442635       29.2207247588  TIP3      1872            0.0000000000
     30517      2073  TIP3      OH2             3.6171199559       12.8732329060       30.0609666983  TIP3      1873            0.0000000000
     30518      2073  TIP3      H1              3.1043735903       12.0787572095       29.8004082466  TIP3      1873            0.0000000000
     30519      2073  TIP3      H2              4.4985642511       12.5019680981       29.9636971760  TIP3      1873            0.0000000000
     30520      2074  TIP3      OH2             0.2426596231        5.9209709714       25.4451416364  TIP3      1874            0.0000000000
     30521      2074  TIP3      H1             -0.2137585591        6.7637665542       25.5020274001  TIP3      1874            0.0000000000
     30522      2074  TIP3      H2             -0.4651175809        5.2689501262       25.4833061889  TIP3      1874            0.0000000000
     30523      2075  TIP3      OH2             0.5972382819        8.6180635955       27.9606453113  TIP3      1875            0.0000000000
     30524      2075  TIP3      H1              1.0855566986        7.8080747346       28.2339236882  TIP3      1875            0.0000000000
     30525      2075  TIP3      H2              1.3204591940        9.2218920637       27.7321668799  TIP3      1875            0.0000000000
     30526      2076  TIP3      OH2            11.0682098797       16.8834173572       28.9948716872  TIP3      1876            0.0000000000
     30527      2076  TIP3      H1             11.5845555188       16.2746568747       28.4285950408  TIP3      1876            0.0000000000
     30528      2076  TIP3      H2             11.4599924625       17.7446093293       28.7084001636  TIP3      1876            0.0000000000
     30529      2077  TIP3      OH2            17.0463762965        2.5080128489       30.5871466851  TIP3      1877            0.0000000000
     30530      2077  TIP3      H1             17.1422360868        2.9110937659       31.4613338154  TIP3      1877            0.0000000000
     30531      2077  TIP3      H2             17.9349937342        2.6897811198       30.2299191019  TIP3      1877            0.0000000000
     30532      2078  TIP3      OH2            12.2119472309        5.5847178656       31.0010884626  TIP3      1878            0.0000000000
     30533      2078  TIP3      H1             12.2393644500        4.6013814845       30.9899215762  TIP3      1878            0.0000000000
     30534      2078  TIP3      H2             11.2971912406        5.7185189581       30.6964989786  TIP3      1878            0.0000000000
     30535      2079  TIP3      OH2             4.9360752045        3.3512225198       27.8863329294  TIP3      1879            0.0000000000
     30536      2079  TIP3      H1              4.9512003784        4.2157861565       27.4314133096  TIP3      1879            0.0000000000
     30537      2079  TIP3      H2              4.4233880254        2.8146410730       27.2399651113  TIP3      1879            0.0000000000
     30538      2080  TIP3      OH2            12.5198518208        3.8015644367       26.9165569323  TIP3      1880            0.0000000000
     30539      2080  TIP3      H1             13.0859071644        3.2240186104       27.4320095736  TIP3      1880            0.0000000000
     30540      2080  TIP3      H2             13.1022458217        4.4367281831       26.4909922663  TIP3      1880            0.0000000000
     30541      2081  TIP3      OH2             1.7767252681        6.2573563808       29.1165892640  TIP3      1881            0.0000000000
     30542      2081  TIP3      H1              2.3344547325        5.6961142029       29.6959286780  TIP3      1881            0.0000000000
     30543      2081  TIP3      H2              1.8901342045        5.8090865458       28.2545990547  TIP3      1881            0.0000000000
     30544      2082  TIP3      OH2             6.5071519738        7.6422546966       28.5003403627  TIP3      1882            0.0000000000
     30545      2082  TIP3      H1              7.3655562903        7.2211135999       28.6458296121  TIP3      1882            0.0000000000
     30546      2082  TIP3      H2              6.0624618290        6.9654985427       27.9420153759  TIP3      1882            0.0000000000
     30547      2083  TIP3      OH2            17.3128599376        3.7820936982       33.3071930956  TIP3      1883            0.0000000000
     30548      2083  TIP3      H1             16.9113301568        4.6578799498       33.0889746598  TIP3      1883            0.0000000000
     30549      2083  TIP3      H2             17.5464082095        3.9573097594       34.2266322702  TIP3      1883            0.0000000000
     30550      2084  TIP3      OH2             3.8765300104        2.4707392099       32.2867340852  TIP3      1884            0.0000000000
     30551      2084  TIP3      H1              3.4552801159        2.9558962202       31.5463251991  TIP3      1884            0.0000000000
     30552      2084  TIP3      H2              3.2639753818        2.6886357679       33.0264353341  TIP3      1884            0.0000000000
     30553      2085  TIP3      OH2             6.0827539251       10.0405462184       32.3840889794  TIP3      1885            0.0000000000
     30554      2085  TIP3      H1              5.2828097759       10.4218298531       32.8034823040  TIP3      1885            0.0000000000
     30555      2085  TIP3      H2              6.6489831099       10.8228664046       32.3661484933  TIP3      1885            0.0000000000
     30556      2086  TIP3      OH2             3.5638632352        4.3687391207       30.1840545402  TIP3      1886            0.0000000000
     30557      2086  TIP3      H1              4.1902644275        4.9699993988       30.6542060372  TIP3      1886            0.0000000000
     30558      2086  TIP3      H2              4.0953349444        4.1155780204       29.4009865965  TIP3      1886            0.0000000000
     30559      2087  TIP3      OH2             4.8150145549       12.3275569455       33.1858578961  TIP3      1887            0.0000000000
     30560      2087  TIP3      H1              4.6329488377       13.1224748586       32.6714340174  TIP3      1887            0.0000000000
     30561      2087  TIP3      H2              3.9626905723       12.2525666406       33.6881019979  TIP3      1887            0.0000000000
     30562      2088  TIP3      OH2             0.9226270606       11.6374999111       23.8652426462  TIP3      1888            0.0000000000
     30563      2088  TIP3      H1              0.4222993381       12.2466263265       23.3160406386  TIP3      1888            0.0000000000
     30564      2088  TIP3      H2              1.1942112297       12.2490076020       24.5779919509  TIP3      1888            0.0000000000
     30565      2089  TIP3      OH2            14.4280230563       13.4625682187       30.8264479306  TIP3      1889            0.0000000000
     30566      2089  TIP3      H1             13.4669208408       13.4829735280       30.9734575529  TIP3      1889            0.0000000000
     30567      2089  TIP3      H2             14.5486454806       14.3074191481       30.3564370989  TIP3      1889            0.0000000000
     30568      2090  TIP3      OH2            14.4074129031        1.9155403933       31.8668086680  TIP3      1890            0.0000000000
     30569      2090  TIP3      H1             13.7528036003        2.6104926592       31.6953027543  TIP3      1890            0.0000000000
     30570      2090  TIP3      H2             15.0826195022        2.0958836176       31.1908019265  TIP3      1890            0.0000000000
     30571      2091  TIP3      OH2             7.5191763141       -0.1027913673       29.4287841135  TIP3      1891            0.0000000000
     30572      2091  TIP3      H1              7.3046808670       -1.0289799865       29.6015667085  TIP3      1891            0.0000000000
     30573      2091  TIP3      H2              6.6926055825        0.3297592308       29.7836170754  TIP3      1891            0.0000000000
     30574      2092  TIP3      OH2            12.8212800160       15.2014629170       28.0134819434  TIP3      1892            0.0000000000
     30575      2092  TIP3      H1             12.7455156662       14.4921996148       27.3629733810  TIP3      1892            0.0000000000
     30576      2092  TIP3      H2             13.6480004881       15.6501430012       27.7330094449  TIP3      1892            0.0000000000
     30577      2093  TIP3      OH2            14.1499818902       12.8256224069       25.8762786135  TIP3      1893            0.0000000000
     30578      2093  TIP3      H1             14.1653318174       12.1395576039       25.1895699167  TIP3      1893            0.0000000000
     30579      2093  TIP3      H2             13.8357383884       12.3118687074       26.6428219480  TIP3      1893            0.0000000000
     30580      2094  TIP3      OH2            15.3568383548       11.7092812944       34.5805917243  TIP3      1894            0.0000000000
     30581      2094  TIP3      H1             15.5428098527       10.9461085328       33.9925013951  TIP3      1894            0.0000000000
     30582      2094  TIP3      H2             15.5767608414       12.4612646790       33.9949669731  TIP3      1894            0.0000000000
     30583      2095  TIP3      OH2            10.3363219378        8.6367700875       24.1065551145  TIP3      1895            0.0000000000
     30584      2095  TIP3      H1              9.4915433222        9.1029763389       23.9727743490  TIP3      1895            0.0000000000
     30585      2095  TIP3      H2             10.9311295532        9.3427176822       23.8223250512  TIP3      1895            0.0000000000
     30586      2096  TIP3      OH2             9.6173434077        6.5595727398       21.2501958382  TIP3      1896            0.0000000000
     30587      2096  TIP3      H1             10.1012434087        7.2980841850       21.6502883090  TIP3      1896            0.0000000000
     30588      2096  TIP3      H2             10.2900271238        5.8750808011       21.1657689591  TIP3      1896            0.0000000000
     30589      2097  TIP3      OH2            17.5400444433        8.1179560491       32.6111132269  TIP3      1897            0.0000000000
     30590      2097  TIP3      H1             16.7892604324        8.7502266355       32.5689994654  TIP3      1897            0.0000000000
     30591      2097  TIP3      H2             18.1102462344        8.5113291562       31.9120349083  TIP3      1897            0.0000000000
     30592      2098  TIP3      OH2            13.4159552223        7.1658514313       34.4529997091  TIP3      1898            0.0000000000
     30593      2098  TIP3      H1             13.2708989966        7.9573593312       34.9961079058  TIP3      1898            0.0000000000
     30594      2098  TIP3      H2             12.6977484343        7.2550993324       33.7947357290  TIP3      1898            0.0000000000
     30595      2099  TIP3      OH2             4.8995663848        9.2982431153       27.0789165782  TIP3      1899            0.0000000000
     30596      2099  TIP3      H1              4.8920667701        9.0565021656       26.1266651992  TIP3      1899            0.0000000000
     30597      2099  TIP3      H2              5.5517464829        8.6818956346       27.4485460368  TIP3      1899            0.0000000000
     30598      2100  TIP3      OH2             5.3577916836        8.0409081054       30.8809167758  TIP3      1900            0.0000000000
     30599      2100  TIP3      H1              5.7064840489        8.0323969702       29.9577887200  TIP3      1900            0.0000000000
     30600      2100  TIP3      H2              5.8516544848        8.7755464099       31.2999494766  TIP3      1900            0.0000000000
     30601      2101  TIP3      OH2            11.8203048652       13.6402763585       31.5440576107  TIP3      1901            0.0000000000
     30602      2101  TIP3      H1             12.0353464839       13.8972158570       32.4593486868  TIP3      1901            0.0000000000
     30603      2101  TIP3      H2             11.6143884547       12.6893338249       31.7012420522  TIP3      1901            0.0000000000
     30604      2102  TIP3      OH2             6.5619372746       12.6378600714       35.2507258048  TIP3      1902            0.0000000000
     30605      2102  TIP3      H1              5.8412642876       13.0720512474       35.7652556855  TIP3      1902            0.0000000000
     30606      2102  TIP3      H2              6.1136576588       12.5346760447       34.3832263703  TIP3      1902            0.0000000000
     30607      2103  TIP3      OH2             3.4714310479        8.7760125073       34.4408823497  TIP3      1903            0.0000000000
     30608      2103  TIP3      H1              3.6743037244        9.4773100187       35.0816908612  TIP3      1903            0.0000000000
     30609      2103  TIP3      H2              2.7012611421        8.3960193545       34.9022446770  TIP3      1903            0.0000000000
     30610      2104  TIP3      OH2             4.6766662803       14.3690776192       36.2629438249  TIP3      1904            0.0000000000
     30611      2104  TIP3      H1              4.4807605091       14.8345576072       35.4200304987  TIP3      1904            0.0000000000
     30612      2104  TIP3      H2              3.7656426128       14.0784413882       36.5059765123  TIP3      1904            0.0000000000
     30613      2105  TIP3      OH2             4.3555237192        8.3981941374       24.5645012795  TIP3      1905            0.0000000000
     30614      2105  TIP3      H1              3.8969345447        9.1940846871       24.2006625181  TIP3      1905            0.0000000000
     30615      2105  TIP3      H2              3.6862183487        7.7140350801       24.4468504513  TIP3      1905            0.0000000000
     30616      2106  TIP3      OH2            17.3213602906       14.5481813700       21.1320114920  TIP3      1906            0.0000000000
     30617      2106  TIP3      H1             16.5360222205       14.4995542837       20.5236338526  TIP3      1906            0.0000000000
     30618      2106  TIP3      H2             17.8616313581       13.8640160151       20.7170201844  TIP3      1906            0.0000000000
     30619      2107  TIP3      OH2             0.3854654302       11.0359372852       33.7323643556  TIP3      1907            0.0000000000
     30620      2107  TIP3      H1             -0.0056777953       10.9243846606       32.8593756012  TIP3      1907            0.0000000000
     30621      2107  TIP3      H2              0.8298630982       10.1617258133       33.8332399817  TIP3      1907            0.0000000000
     30622      2108  TIP3      OH2            -0.0238949932       13.6549020928       30.4992001152  TIP3      1908            0.0000000000
     30623      2108  TIP3      H1              0.9222993516       13.4939950286       30.4445044761  TIP3      1908            0.0000000000
     30624      2108  TIP3      H2             -0.0522576284       14.4789771561       30.9907488681  TIP3      1908            0.0000000000
     30625      2109  TIP3      OH2            18.0658486518       14.2688843014       36.3800316656  TIP3      1909            0.0000000000
     30626      2109  TIP3      H1             18.0070868379       13.3132849424       36.2286421521  TIP3      1909            0.0000000000
     30627      2109  TIP3      H2             17.1448400631       14.4428890547       36.6955188408  TIP3      1909            0.0000000000
     30628      2110  TIP3      OH2             9.0066484101       13.8552008434       35.1172843392  TIP3      1910            0.0000000000
     30629      2110  TIP3      H1              9.0732889974       14.6262848792       35.7178069772  TIP3      1910            0.0000000000
     30630      2110  TIP3      H2              8.1376511170       13.4670840197       35.3548027769  TIP3      1910            0.0000000000
     30631      2111  TIP3      OH2             9.7965640854       17.6855675570       24.1246254156  TIP3      1911            0.0000000000
     30632      2111  TIP3      H1              8.9227010112       17.3466612392       23.8284448548  TIP3      1911            0.0000000000
     30633      2111  TIP3      H2              9.5831478423       18.3818856269       24.7888518327  TIP3      1911            0.0000000000
     30634      2112  TIP3      OH2             3.0169400780       16.3862382940       26.8732334395  TIP3      1912            0.0000000000
     30635      2112  TIP3      H1              3.4322977280       16.0631903958       27.6992788251  TIP3      1912            0.0000000000
     30636      2112  TIP3      H2              2.0815581393       16.2147477458       27.0758462627  TIP3      1912            0.0000000000
     30637      2113  TIP3      OH2            12.5165788083       16.7313423460       21.7678392281  TIP3      1913            0.0000000000
     30638      2113  TIP3      H1             12.4879956751       15.8042152208       21.5086895794  TIP3      1913            0.0000000000
     30639      2113  TIP3      H2             12.3764955717       16.6941344793       22.7334935269  TIP3      1913            0.0000000000
     30640      2114  TIP3      OH2            12.3303703170       16.8714987727       24.4686999012  TIP3      1914            0.0000000000
     30641      2114  TIP3      H1             11.3794086394       17.0838912182       24.6075457741  TIP3      1914            0.0000000000
     30642      2114  TIP3      H2             12.4553904162       16.0519994600       24.9568056673  TIP3      1914            0.0000000000
     30643      2115  TIP3      OH2            14.9661647491        5.5102575584       36.6211735189  TIP3      1915            0.0000000000
     30644      2115  TIP3      H1             14.6196343289        5.9582831276       35.8176984526  TIP3      1915            0.0000000000
     30645      2115  TIP3      H2             15.0263365734        4.5807001548       36.3129124241  TIP3      1915            0.0000000000
     30646      2116  TIP3      OH2             2.5369822710       12.2716935599       34.5466763557  TIP3      1916            0.0000000000
     30647      2116  TIP3      H1              2.6075270127       11.9093907184       35.4638884469  TIP3      1916            0.0000000000
     30648      2116  TIP3      H2              1.6713074749       11.9201125535       34.2636181384  TIP3      1916            0.0000000000
     30649      2117  TIP3      OH2             5.3123506415        0.9724513558       30.4527497361  TIP3      1917            0.0000000000
     30650      2117  TIP3      H1              4.4413809959        0.7642631642       30.0530611225  TIP3      1917            0.0000000000
     30651      2117  TIP3      H2              5.0384924836        1.5188738707       31.2096471149  TIP3      1917            0.0000000000
     30652      2118  TIP3      OH2            10.0648293196        0.3676297300       33.7217861482  TIP3      1918            0.0000000000
     30653      2118  TIP3      H1             10.4827936194       -0.0047425626       34.5329963542  TIP3      1918            0.0000000000
     30654      2118  TIP3      H2              9.1038573767        0.3248367770       33.9383587697  TIP3      1918            0.0000000000
     30655      2119  TIP3      OH2            12.7849024922        4.4273708985       34.8416691988  TIP3      1919            0.0000000000
     30656      2119  TIP3      H1             12.2506691917        4.1338973273       35.6221190433  TIP3      1919            0.0000000000
     30657      2119  TIP3      H2             13.0115833206        5.3379172805       35.0837678650  TIP3      1919            0.0000000000
     30658      2120  TIP3      OH2             5.3091847380        5.5626593582       31.7989551499  TIP3      1920            0.0000000000
     30659      2120  TIP3      H1              4.5781062783        5.6382444130       32.4398223844  TIP3      1920            0.0000000000
     30660      2120  TIP3      H2              5.2981723866        6.4849899667       31.4599297635  TIP3      1920            0.0000000000
     30661      2121  TIP3      OH2             5.2378093843        5.8388416323       26.8605829572  TIP3      1921            0.0000000000
     30662      2121  TIP3      H1              4.3172407495        5.9547939840       26.5374103901  TIP3      1921            0.0000000000
     30663      2121  TIP3      H2              5.6617567351        5.5877535846       25.9989936133  TIP3      1921            0.0000000000
     30664      2122  TIP3      OH2            10.8846222543        6.1608767264       25.2066232375  TIP3      1922            0.0000000000
     30665      2122  TIP3      H1             10.7173381778        7.0453600666       24.8063890147  TIP3      1922            0.0000000000
     30666      2122  TIP3      H2             11.5815625794        5.8062391640       24.6176653343  TIP3      1922            0.0000000000
     30667      2123  TIP3      OH2             9.5804160180        6.6128100630       36.9173938761  TIP3      1923            0.0000000000
     30668      2123  TIP3      H1              9.2120660677        5.7503177421       37.2038909672  TIP3      1923            0.0000000000
     30669      2123  TIP3      H2             10.3343769237        6.6895879851       37.5295164604  TIP3      1923            0.0000000000
     30670      2124  TIP3      OH2             2.8173905419        5.7323302328       33.0360175828  TIP3      1924            0.0000000000
     30671      2124  TIP3      H1              3.1453158417        6.0907292175       33.8769682329  TIP3      1924            0.0000000000
     30672      2124  TIP3      H2              2.4890652306        4.8511873256       33.2981506072  TIP3      1924            0.0000000000
     30673      2125  TIP3      OH2            -0.3846373648        2.8651096761       27.7130111849  TIP3      1925            0.0000000000
     30674      2125  TIP3      H1              0.2415228395        2.3213647705       28.2042623693  TIP3      1925            0.0000000000
     30675      2125  TIP3      H2             -0.3969464604        2.4655842985       26.8251527608  TIP3      1925            0.0000000000
     30676      2126  TIP3      OH2             1.1983480501        4.0186751324       23.1546553724  TIP3      1926            0.0000000000
     30677      2126  TIP3      H1              1.8936854756        4.2353411125       22.5295186474  TIP3      1926            0.0000000000
     30678      2126  TIP3      H2              0.4398101966        4.4713395268       22.7851463465  TIP3      1926            0.0000000000
     30679      2127  TIP3      OH2            11.3580138075        7.5800786962       32.5353932985  TIP3      1927            0.0000000000
     30680      2127  TIP3      H1             11.6849758000        6.7340165592       32.1498921722  TIP3      1927            0.0000000000
     30681      2127  TIP3      H2             10.6734092351        7.2275716830       33.1421072320  TIP3      1927            0.0000000000
     30682      2128  TIP3      OH2             8.2383651392        3.2947806846       27.7200638559  TIP3      1928            0.0000000000
     30683      2128  TIP3      H1              7.2769767830        3.3444722418       27.8666257251  TIP3      1928            0.0000000000
     30684      2128  TIP3      H2              8.5509470890        2.9011392938       28.5470086293  TIP3      1928            0.0000000000
     30685      2129  TIP3      OH2             2.6944642599        5.0241473368       26.4219488455  TIP3      1929            0.0000000000
     30686      2129  TIP3      H1              1.8481164880        5.1447303429       25.9426007247  TIP3      1929            0.0000000000
     30687      2129  TIP3      H2              2.9255722145        4.1139003052       26.1852341719  TIP3      1929            0.0000000000
     30688      2130  TIP3      OH2             6.0927712472        5.2634596351       24.4295475043  TIP3      1930            0.0000000000
     30689      2130  TIP3      H1              7.0122595514        4.9246714913       24.5228382634  TIP3      1930            0.0000000000
     30690      2130  TIP3      H2              6.0693101100        5.4784626620       23.4967868883  TIP3      1930            0.0000000000
     30691      2131  TIP3      OH2            12.0034350290        2.8275066896       30.7447582682  TIP3      1931            0.0000000000
     30692      2131  TIP3      H1             11.4826711737        2.6077731347       31.5585985287  TIP3      1931            0.0000000000
     30693      2131  TIP3      H2             11.6451906097        2.2075577772       30.0886412494  TIP3      1931            0.0000000000
     30694      2132  TIP3      OH2            15.0958378404       18.4033444575       37.3304196058  TIP3      1932            0.0000000000
     30695      2132  TIP3      H1             15.4229865553       18.9048982798       36.5674961840  TIP3      1932            0.0000000000
     30696      2132  TIP3      H2             15.9054394324       18.3649670868       37.8631412055  TIP3      1932            0.0000000000
     30697      2133  TIP3      OH2             2.9361114719       10.6970203289       36.8211316757  TIP3      1933            0.0000000000
     30698      2133  TIP3      H1              3.6275714783       10.6964270718       37.5226751023  TIP3      1933            0.0000000000
     30699      2133  TIP3      H2              2.1608898533       10.4409128104       37.3597089270  TIP3      1933            0.0000000000
     30700      2134  TIP3      OH2             9.3617999140        5.8037685635       29.5733109330  TIP3      1934            0.0000000000
     30701      2134  TIP3      H1              9.6373666721        5.3985660029       28.7415263806  TIP3      1934            0.0000000000
     30702      2134  TIP3      H2              8.6899778652        5.1838128996       29.8950573198  TIP3      1934            0.0000000000
     30703      2135  TIP3      OH2             3.5565894100        2.1129896985       25.8918206581  TIP3      1935            0.0000000000
     30704      2135  TIP3      H1              2.8762557720        1.4753037110       26.1937550227  TIP3      1935            0.0000000000
     30705      2135  TIP3      H2              4.2194313810        1.5035979496       25.5538663451  TIP3      1935            0.0000000000
     30706      2136  TIP3      OH2             7.5876632009        4.1520210444       31.8243392448  TIP3      1936            0.0000000000
     30707      2136  TIP3      H1              6.8207795120        4.7723113238       31.8137867604  TIP3      1936            0.0000000000
     30708      2136  TIP3      H2              8.2456498312        4.6508398071       32.3185189700  TIP3      1936            0.0000000000
     30709      2137  TIP3      OH2            15.6140129185        9.9880808467       32.6017422387  TIP3      1937            0.0000000000
     30710      2137  TIP3      H1             16.1049698758       10.4603307426       31.8836989788  TIP3      1937            0.0000000000
     30711      2137  TIP3      H2             14.7022573000       10.2075986196       32.3445286414  TIP3      1937            0.0000000000
     30712      2138  TIP3      OH2            11.9164971983        3.0396966129       22.1313611838  TIP3      1938            0.0000000000
     30713      2138  TIP3      H1             11.7500830284        2.5323944609       21.3063191916  TIP3      1938            0.0000000000
     30714      2138  TIP3      H2             12.0474909919        3.9438128544       21.8304722150  TIP3      1938            0.0000000000
     30715      2139  TIP3      OH2             9.3954338325       11.0595699678       34.8283934773  TIP3      1939            0.0000000000
     30716      2139  TIP3      H1              9.3391824613       10.6729705331       35.7095209648  TIP3      1939            0.0000000000
     30717      2139  TIP3      H2              9.2539074618       12.0055071451       35.0178285010  TIP3      1939            0.0000000000
     30718      2140  TIP3      OH2            13.0989937610        5.7919476988       23.7605190461  TIP3      1940            0.0000000000
     30719      2140  TIP3      H1             14.0011354888        5.4608771666       23.7861034860  TIP3      1940            0.0000000000
     30720      2140  TIP3      H2             13.2907848910        6.7495992042       23.6548652988  TIP3      1940            0.0000000000
     30721      2141  TIP3      OH2             3.3537684967       10.2978865777       29.2290633904  TIP3      1941            0.0000000000
     30722      2141  TIP3      H1              3.8762077652       10.0464050445       28.4271274534  TIP3      1941            0.0000000000
     30723      2141  TIP3      H2              3.3869364599        9.4923200343       29.7812463331  TIP3      1941            0.0000000000
     30724      2142  TIP3      OH2             0.4962726468        8.3993724144       34.6244684671  TIP3      1942            0.0000000000
     30725      2142  TIP3      H1              0.2897219869        7.9686184727       35.4732070645  TIP3      1942            0.0000000000
     30726      2142  TIP3      H2             -0.1445987003        7.9850119850       34.0167473743  TIP3      1942            0.0000000000
     30727      2143  TIP3      OH2             7.2777803140        8.0976813246       36.6395449555  TIP3      1943            0.0000000000
     30728      2143  TIP3      H1              6.9280297460        7.5136845729       35.9537792126  TIP3      1943            0.0000000000
     30729      2143  TIP3      H2              8.1752154312        7.7030178565       36.7643712037  TIP3      1943            0.0000000000
     30730      2144  TIP3      OH2            12.1317926588       13.7046521842       34.9545915233  TIP3      1944            0.0000000000
     30731      2144  TIP3      H1             11.2211215784       13.5126925268       34.7110111027  TIP3      1944            0.0000000000
     30732      2144  TIP3      H2             11.9758344549       14.1149390886       35.8339289001  TIP3      1944            0.0000000000
     30733      2145  TIP3      OH2            17.6312065830        5.6191400818       22.8111478912  TIP3      1945            0.0000000000
     30734      2145  TIP3      H1             16.7378719892        5.3430371705       22.5619165318  TIP3      1945            0.0000000000
     30735      2145  TIP3      H2             17.4400431167        6.4487608167       23.2885738143  TIP3      1945            0.0000000000
     30736      2146  TIP3      OH2            17.7026572318       11.3878721436       35.8740628468  TIP3      1946            0.0000000000
     30737      2146  TIP3      H1             16.7782306774       11.5381008147       35.5821023542  TIP3      1946            0.0000000000
     30738      2146  TIP3      H2             18.1656038276       11.2598269874       35.0139437465  TIP3      1946            0.0000000000
     30739      2147  TIP3      OH2            15.5852550337       14.8005206135       23.3797602973  TIP3      1947            0.0000000000
     30740      2147  TIP3      H1             15.1414825489       14.1789160302       23.9759149045  TIP3      1947            0.0000000000
     30741      2147  TIP3      H2             15.9740005347       14.1718954384       22.7321589226  TIP3      1947            0.0000000000
     30742      2148  TIP3      OH2            13.0445752059        9.3643738505       30.8953385173  TIP3      1948            0.0000000000
     30743      2148  TIP3      H1             12.5210705869        8.7551281792       31.4506760940  TIP3      1948            0.0000000000
     30744      2148  TIP3      H2             13.6984258928        8.7706833558       30.5304453456  TIP3      1948            0.0000000000
     30745      2149  TIP3      OH2             7.6226873980       14.9943809886       33.1007406994  TIP3      1949            0.0000000000
     30746      2149  TIP3      H1              8.0434786239       15.8533232269       32.9787351767  TIP3      1949            0.0000000000
     30747      2149  TIP3      H2              8.1512821008       14.5997185448       33.8390095497  TIP3      1949            0.0000000000
     30748      2150  TIP3      OH2             5.9020222125       16.5604411470       26.1634040328  TIP3      1950            0.0000000000
     30749      2150  TIP3      H1              4.9435849468       16.5650530137       26.3203847992  TIP3      1950            0.0000000000
     30750      2150  TIP3      H2              6.1027028796       17.5137784675       26.2361662186  TIP3      1950            0.0000000000
     30751      2151  TIP3      OH2            10.8586216944       11.2387917791       32.4351660451  TIP3      1951            0.0000000000
     30752      2151  TIP3      H1             10.3411008007       11.0264243075       33.2445375060  TIP3      1951            0.0000000000
     30753      2151  TIP3      H2             11.2113974241       10.3627507733       32.1980795173  TIP3      1951            0.0000000000
     30754      2152  TIP3      OH2            13.9733087654       15.9501438674       34.7058407023  TIP3      1952            0.0000000000
     30755      2152  TIP3      H1             13.1189031436       15.5034971411       34.5239402276  TIP3      1952            0.0000000000
     30756      2152  TIP3      H2             14.0325434344       16.6293070130       33.9979600711  TIP3      1952            0.0000000000
     30757      2153  TIP3      OH2             2.2631763801        3.1470265990       34.4284279979  TIP3      1953            0.0000000000
     30758      2153  TIP3      H1              1.6234265961        3.6173261120       34.9910077141  TIP3      1953            0.0000000000
     30759      2153  TIP3      H2              2.1936482423        2.2447191061       34.7956194202  TIP3      1953            0.0000000000
     30760      2154  TIP3      OH2             1.6613485789       14.9543042605       32.6543593813  TIP3      1954            0.0000000000
     30761      2154  TIP3      H1              2.2748619001       14.2098424796       32.6937394790  TIP3      1954            0.0000000000
     30762      2154  TIP3      H2              1.8299447029       15.3234531682       33.5312764836  TIP3      1954            0.0000000000
     30763      2155  TIP3      OH2             3.4245177333       10.4715834551       23.1573818124  TIP3      1955            0.0000000000
     30764      2155  TIP3      H1              2.4896829389       10.7596388936       23.1347427635  TIP3      1955            0.0000000000
     30765      2155  TIP3      H2              3.9124862139       11.1617108373       22.6709644299  TIP3      1955            0.0000000000
     30766      2156  TIP3      OH2            10.8321583459        2.9254372389       33.1532791831  TIP3      1956            0.0000000000
     30767      2156  TIP3      H1             11.4859005314        3.3400951019       33.7377006453  TIP3      1956            0.0000000000
     30768      2156  TIP3      H2             10.6424892027        2.0581853272       33.5677427433  TIP3      1956            0.0000000000
     30769      2157  TIP3      OH2            11.3475646971        2.4260434658       24.9047950477  TIP3      1957            0.0000000000
     30770      2157  TIP3      H1             11.6137602130        2.4932130232       23.9622918089  TIP3      1957            0.0000000000
     30771      2157  TIP3      H2             11.8339815316        3.1335293476       25.3545290413  TIP3      1957            0.0000000000
     30772      2158  TIP3      OH2             8.5822316743        4.7701660274       25.2815063898  TIP3      1958            0.0000000000
     30773      2158  TIP3      H1              9.4385463448        5.2523317710       25.3082498528  TIP3      1958            0.0000000000
     30774      2158  TIP3      H2              8.6003076053        4.2344150232       26.0977825495  TIP3      1958            0.0000000000
     30775      2159  TIP3      OH2             9.7617339815        5.5548335614       34.1624941981  TIP3      1959            0.0000000000
     30776      2159  TIP3      H1              9.8364485826        5.8241754561       35.0930355765  TIP3      1959            0.0000000000
     30777      2159  TIP3      H2             10.1000404877        4.6407515266       34.1487168532  TIP3      1959            0.0000000000
     30778      2160  TIP3      OH2             9.1149303927        1.3577970026       25.8277400837  TIP3      1960            0.0000000000
     30779      2160  TIP3      H1              8.8892247107        1.9969182139       26.5312550259  TIP3      1960            0.0000000000
     30780      2160  TIP3      H2             10.0261120998        1.6569193678       25.5602226802  TIP3      1960            0.0000000000
     30781      2161  TIP3      OH2             5.7268896563       15.9009345253       23.5114043628  TIP3      1961            0.0000000000
     30782      2161  TIP3      H1              6.3737644131       16.4144269981       22.9950734781  TIP3      1961            0.0000000000
     30783      2161  TIP3      H2              6.0557492305       15.9854114321       24.4285593962  TIP3      1961            0.0000000000
     30784      2162  TIP3      OH2             5.4490315981        2.9936187326       22.4081418065  TIP3      1962            0.0000000000
     30785      2162  TIP3      H1              4.8622895964        3.1615214806       23.1620119630  TIP3      1962            0.0000000000
     30786      2162  TIP3      H2              6.2746856213        2.6836327409       22.8502586405  TIP3      1962            0.0000000000
     30787      2163  TIP3      OH2            15.1721032023        3.1095843363       35.2828815107  TIP3      1963            0.0000000000
     30788      2163  TIP3      H1             14.2411570525        3.3019601272       35.0339206140  TIP3      1963            0.0000000000
     30789      2163  TIP3      H2             15.6201682216        3.1880513798       34.4239119188  TIP3      1963            0.0000000000
     30790      2164  TIP3      OH2            15.0092886698       16.2674471677       30.7167417508  TIP3      1964            0.0000000000
     30791      2164  TIP3      H1             15.0893190745       16.9635241550       30.0303345743  TIP3      1964            0.0000000000
     30792      2164  TIP3      H2             15.9536829457       16.1176660492       30.9132730883  TIP3      1964            0.0000000000
     30793      2165  TIP3      OH2             2.7494561873        0.4003247156       29.8727752291  TIP3      1965            0.0000000000
     30794      2165  TIP3      H1              2.6429422393        0.2286333854       28.9105012733  TIP3      1965            0.0000000000
     30795      2165  TIP3      H2              2.4413984991       -0.4573373729       30.2362056066  TIP3      1965            0.0000000000
     30796      2166  TIP3      OH2             1.0712721018       13.9638013187       25.1619499351  TIP3      1966            0.0000000000
     30797      2166  TIP3      H1              0.5345706416       14.6876378714       25.5083540976  TIP3      1966            0.0000000000
     30798      2166  TIP3      H2              1.9667074315       14.2862935410       25.3814669683  TIP3      1966            0.0000000000
     30799      2167  TIP3      OH2             0.6031240656       17.0727250971       37.0469397794  TIP3      1967            0.0000000000
     30800      2167  TIP3      H1              1.2493273921       16.8626407867       37.7532745314  TIP3      1967            0.0000000000
     30801      2167  TIP3      H2              0.2024512367       16.1899099219       36.9070599432  TIP3      1967            0.0000000000
     30802      2168  TIP3      OH2             5.4239710421       15.8805713727       38.4448433500  TIP3      1968            0.0000000000
     30803      2168  TIP3      H1              6.2954887970       15.5141589480       38.6899136488  TIP3      1968            0.0000000000
     30804      2168  TIP3      H2              5.2858580856       15.4649351235       37.5688068533  TIP3      1968            0.0000000000
     30805      2169  TIP3      OH2             9.1387057399       15.6539685988       20.5922599802  TIP3      1969            0.0000000000
     30806      2169  TIP3      H1              8.5915839657       15.1065773983       21.1804202400  TIP3      1969            0.0000000000
     30807      2169  TIP3      H2              9.8400317965       15.0584601054       20.3120009675  TIP3      1969            0.0000000000
     30808      2170  TIP3      OH2            11.8059800064       14.4696727312       37.5212029210  TIP3      1970            0.0000000000
     30809      2170  TIP3      H1             11.4771247710       13.5716073974       37.7771780580  TIP3      1970            0.0000000000
     30810      2170  TIP3      H2             12.6495828373       14.4942283133       38.0311400977  TIP3      1970            0.0000000000
     30811      2171  TIP3      OH2             0.4106602560       10.6997171492       38.1376838767  TIP3      1971            0.0000000000
     30812      2171  TIP3      H1              0.1003151407        9.7809228088       38.1601573430  TIP3      1971            0.0000000000
     30813      2171  TIP3      H2             -0.0394949725       11.0186208074       37.3227905816  TIP3      1971            0.0000000000
     30814      2172  TIP3      OH2             7.2692142638       10.7164299622       37.1788782394  TIP3      1972            0.0000000000
     30815      2172  TIP3      H1              7.1634699025       11.1880136856       36.3277859881  TIP3      1972            0.0000000000
     30816      2172  TIP3      H2              7.0959803891        9.7683730828       36.9552779956  TIP3      1972            0.0000000000
     30817      2173  TIP3      OH2            12.8564864061       10.6067505883       35.0967570795  TIP3      1973            0.0000000000
     30818      2173  TIP3      H1             13.6885148270       11.1276856572       35.0779507394  TIP3      1973            0.0000000000
     30819      2173  TIP3      H2             12.2080383199       11.3253311945       35.0224651701  TIP3      1973            0.0000000000
     30820      2174  TIP3      OH2             1.7616285189        7.7552260366       37.6491120870  TIP3      1974            0.0000000000
     30821      2174  TIP3      H1              1.8631485231        6.8126340892       37.8238943521  TIP3      1974            0.0000000000
     30822      2174  TIP3      H2              2.0841678136        8.1761682806       38.4790607795  TIP3      1974            0.0000000000
     30823      2175  TIP3      OH2             6.2618780393        8.7426976472       22.3489438441  TIP3      1975            0.0000000000
     30824      2175  TIP3      H1              5.6569588330        8.7789811706       23.1115901038  TIP3      1975            0.0000000000
     30825      2175  TIP3      H2              6.5478528387        7.8304544592       22.3453048748  TIP3      1975            0.0000000000
     30826      2176  TIP3      OH2             5.3061895721        6.8284988989       34.4056909700  TIP3      1976            0.0000000000
     30827      2176  TIP3      H1              4.7747269271        7.6412067207       34.4813678933  TIP3      1976            0.0000000000
     30828      2176  TIP3      H2              6.1181686012        7.2055910105       34.0144194486  TIP3      1976            0.0000000000
     30829      2177  TIP3      OH2            10.9121257266        9.6741529655       38.1178483234  TIP3      1977            0.0000000000
     30830      2177  TIP3      H1             11.6009308597        9.1134728822       37.7296610192  TIP3      1977            0.0000000000
     30831      2177  TIP3      H2             10.4266517371        9.0285163265       38.6663721927  TIP3      1977            0.0000000000
     30832      2178  TIP3      OH2             5.9727035358        4.3009575197       35.4892739645  TIP3      1978            0.0000000000
     30833      2178  TIP3      H1              6.1072448520        3.6811534244       34.7387463413  TIP3      1978            0.0000000000
     30834      2178  TIP3      H2              5.7307935670        5.1285276667       35.0245520741  TIP3      1978            0.0000000000
     30835      2179  TIP3      OH2             6.2933032364        2.4024020761       33.3945136341  TIP3      1979            0.0000000000
     30836      2179  TIP3      H1              6.7307698504        2.9066062581       32.6666311659  TIP3      1979            0.0000000000
     30837      2179  TIP3      H2              5.3458746705        2.4169013365       33.1334116724  TIP3      1979            0.0000000000
     30838      2180  TIP3      OH2             7.5823088892        8.2511394378       33.5817068602  TIP3      1980            0.0000000000
     30839      2180  TIP3      H1              8.4026569378        8.6960482889       33.3256165484  TIP3      1980            0.0000000000
     30840      2180  TIP3      H2              6.9141909894        8.8647086713       33.2234451130  TIP3      1980            0.0000000000
     30841      2181  TIP3      OH2            12.3731226989        5.5274158722       38.3307576484  TIP3      1981            0.0000000000
     30842      2181  TIP3      H1             12.4702060706        4.5711294513       38.2551223176  TIP3      1981            0.0000000000
     30843      2181  TIP3      H2             13.2666663748        5.8717744964       38.1809576960  TIP3      1981            0.0000000000
     30844      2182  TIP3      OH2            13.6112434126        8.8726142064       37.0491464353  TIP3      1982            0.0000000000
     30845      2182  TIP3      H1             13.2829519293        9.4779279065       36.3507672593  TIP3      1982            0.0000000000
     30846      2182  TIP3      H2             14.5656815147        8.8379139191       36.8540321682  TIP3      1982            0.0000000000
     30847      2183  TIP3      OH2             4.4101209803        5.0988038613       37.6949752083  TIP3      1983            0.0000000000
     30848      2183  TIP3      H1              3.5528481388        4.7236490783       37.4228434682  TIP3      1983            0.0000000000
     30849      2183  TIP3      H2              4.9827079903        4.8388145772       36.9453966970  TIP3      1983            0.0000000000
     30850      2184  TIP3      OH2             7.3337773095        0.0055540331       33.7875328356  TIP3      1984            0.0000000000
     30851      2184  TIP3      H1              6.9586628477        0.9007615823       33.6234301530  TIP3      1984            0.0000000000
     30852      2184  TIP3      H2              6.6807401002       -0.5312147181       33.3218079510  TIP3      1984            0.0000000000
     30853      2185  TIP3      OH2             8.1950321275        4.3065739869       37.7128377755  TIP3      1985            0.0000000000
     30854      2185  TIP3      H1              7.5806041297        4.0963294030       38.4406488283  TIP3      1985            0.0000000000
     30855      2185  TIP3      H2              7.6280904936        4.1145800229       36.9496893111  TIP3      1985            0.0000000000
     30856      2186  TIP3      OH2            11.1032238881        3.5194650503       36.6431307072  TIP3      1986            0.0000000000
     30857      2186  TIP3      H1             10.1620270879        3.4749512592       36.8431231639  TIP3      1986            0.0000000000
     30858      2186  TIP3      H2             11.4507992202        2.9978585260       37.3920856131  TIP3      1986            0.0000000000
     30859      2187  TIP3      OH2            12.7065480588        2.2164843352       38.5243571988  TIP3      1987            0.0000000000
     30860      2187  TIP3      H1             12.6816527957        1.2379593982       38.4084654112  TIP3      1987            0.0000000000
     30861      2187  TIP3      H2             12.5160523948        2.3066381710       39.4830108038  TIP3      1987            0.0000000000
     30862      2188  TIP3      OH2             2.2703821726        3.3721267248       37.7407593114  TIP3      1988            0.0000000000
     30863      2188  TIP3      H1              1.9921689163        2.5743574352       37.2540033104  TIP3      1988            0.0000000000
     30864      2188  TIP3      H2              2.1526311037        3.0656205305       38.6766619836  TIP3      1988            0.0000000000
     30865      2189  TIP3      OH2             6.8516095398       -0.3237289054       36.5824390998  TIP3      1989            0.0000000000
     30866      2189  TIP3      H1              7.5547813554       -1.0033254715       36.7021220892  TIP3      1989            0.0000000000
     30867      2189  TIP3      H2              6.9814815301       -0.1767442084       35.6193633046  TIP3      1989            0.0000000000
     30868      2190  TIP3      OH2             7.2925086873        1.1231329638       38.9823845160  TIP3      1990            0.0000000000
     30869      2190  TIP3      H1              7.1310448219        0.6474450441       38.1343749343  TIP3      1990            0.0000000000
     30870      2190  TIP3      H2              6.8559858753        1.9859120671       38.8448464818  TIP3      1990            0.0000000000
     30871      2191  TIP3      OH2             7.2199663989       17.9125121989       22.2170190819  TIP3      1991            0.0000000000
     30872      2191  TIP3      H1              7.8172575414       18.0373754680       21.4629027506  TIP3      1991            0.0000000000
     30873      2191  TIP3      H2              6.5324718935       18.5602304470       22.0022482320  TIP3      1991            0.0000000000
     30874      2192  TIP3      OH2            -0.2521417375       17.7588523838       26.1880953410  TIP3      1992            0.0000000000
     30875      2192  TIP3      H1             -1.0846581961       17.4691387196       25.7630749254  TIP3      1992            0.0000000000
     30876      2192  TIP3      H2             -0.2827654342       17.2294990552       26.9993741333  TIP3      1992            0.0000000000
     30877      2193  TIP3      OH2             0.4460025339       15.8975167486       28.2759699005  TIP3      1993            0.0000000000
     30878      2193  TIP3      H1             -0.2899556823       15.3609198077       28.6231580298  TIP3      1993            0.0000000000
     30879      2193  TIP3      H2              0.9000178508       16.1556252831       29.1105936591  TIP3      1993            0.0000000000
     30880      2194  TIP3      OH2            17.8292875714       16.7739381600       30.9320875408  TIP3      1994            0.0000000000
     30881      2194  TIP3      H1             18.0974024392       16.9489696098       31.8496634371  TIP3      1994            0.0000000000
     30882      2194  TIP3      H2             18.5921954402       17.1213681727       30.4388493965  TIP3      1994            0.0000000000
     30883      2195  TIP3      OH2            17.4515463942       16.2503290425       33.9639340972  TIP3      1995            0.0000000000
     30884      2195  TIP3      H1             17.0580341200       15.5005686673       33.4578808221  TIP3      1995            0.0000000000
     30885      2195  TIP3      H2             17.6300542555       15.8066793578       34.8149765117  TIP3      1995            0.0000000000
     30886      2196  TIP3      OH2            16.0314089412       12.1204532444       38.8468413994  TIP3      1996            0.0000000000
     30887      2196  TIP3      H1             15.0994806489       12.1202802084       39.1728009685  TIP3      1996            0.0000000000
     30888      2196  TIP3      H2             16.4279496795       12.8430255704       39.3861298877  TIP3      1996            0.0000000000
     30889      2197  TIP3      OH2            17.1048379178       11.1511841131       30.7575240866  TIP3      1997            0.0000000000
     30890      2197  TIP3      H1             17.8186009610       10.5369722480       30.4759089380  TIP3      1997            0.0000000000
     30891      2197  TIP3      H2             17.4147768313       12.0084341374       30.3885680920  TIP3      1997            0.0000000000
     30892      2198  TIP3      OH2            15.9397185803       14.0970835131       33.1805598678  TIP3      1998            0.0000000000
     30893      2198  TIP3      H1             15.2589592781       14.4833898451       33.7545200077  TIP3      1998            0.0000000000
     30894      2198  TIP3      H2             15.4452323192       13.9183459535       32.3501231687  TIP3      1998            0.0000000000
     30895      2199  TIP3      OH2            15.5305705934        5.5993754259       21.0472766992  TIP3      1999            0.0000000000
     30896      2199  TIP3      H1             16.2874112377        6.2021713499       20.9873860592  TIP3      1999            0.0000000000
     30897      2199  TIP3      H2             15.8915914503        4.7620289429       20.7193145281  TIP3      1999            0.0000000000
     30898      2200  TIP3      OH2             0.2573179424        9.3212507268       30.6370883791  TIP3      2000            0.0000000000
     30899      2200  TIP3      H1              0.2551341385        9.0102273201       29.7077902018  TIP3      2000            0.0000000000
     30900      2200  TIP3      H2              1.1477792461        9.0168445773       30.9258701266  TIP3      2000            0.0000000000
     30901      2201  TIP3      OH2            16.4946049748        8.9079846050       36.2880952135  TIP3      2001            0.0000000000
     30902      2201  TIP3      H1             16.9486047314        8.0706888340       36.5281181722  TIP3      2001            0.0000000000
     30903      2201  TIP3      H2             17.2062992768        9.5725687230       36.1520137913  TIP3      2001            0.0000000000
     30904      2202  TIP3      OH2            17.4241765637        6.4179160323       37.1354017266  TIP3      2002            0.0000000000
     30905      2202  TIP3      H1             16.5929984841        6.0057475692       36.7933624639  TIP3      2002            0.0000000000
     30906      2202  TIP3      H2             18.0520447272        5.6729084884       36.9991934465  TIP3      2002            0.0000000000
     30907      2203  TIP3      OH2            15.9441942992        6.0563913662       33.4934502742  TIP3      2003            0.0000000000
     30908      2203  TIP3      H1             15.0186250981        6.3441875753       33.4279725804  TIP3      2003            0.0000000000
     30909      2203  TIP3      H2             16.4463187356        6.7968261654       33.0942042430  TIP3      2003            0.0000000000
     30910      2204  TIP3      OH2             0.1337441306        4.3668547419       36.5673371803  TIP3      2004            0.0000000000
     30911      2204  TIP3      H1              0.9520391267        4.1808728375       37.0768798027  TIP3      2004            0.0000000000
     30912      2204  TIP3      H2             -0.3921278730        3.5504886874       36.7195227701  TIP3      2004            0.0000000000
     30913      2205  TIP3      OH2            17.8551934527        0.1014999933       38.2967493641  TIP3      2005            0.0000000000
     30914      2205  TIP3      H1             18.3309741822       -0.5803824664       37.7693913701  TIP3      2005            0.0000000000
     30915      2205  TIP3      H2             17.9249035901        0.8869931469       37.7054502793  TIP3      2005            0.0000000000
     30916      2206  TIP3      OH2             1.2933694532        2.6410396560       30.0906909133  TIP3      2006            0.0000000000
     30917      2206  TIP3      H1              1.7777834844        1.7924053827       30.0319853900  TIP3      2006            0.0000000000
     30918      2206  TIP3      H2              1.9847898718        3.2873524518       29.8890993572  TIP3      2006            0.0000000000
     30919      2207  TIP3      OH2            -0.2884894148        5.8283177987       30.8045060877  TIP3      2007            0.0000000000
     30920      2207  TIP3      H1              0.3641851068        5.5581583604       30.1363920341  TIP3      2007            0.0000000000
     30921      2207  TIP3      H2              0.1812148928        6.5852948330       31.1799160745  TIP3      2007            0.0000000000
     30922      2208  TIP3      OH2            17.4326874286        2.3742689757       36.8835021103  TIP3      2008            0.0000000000
     30923      2208  TIP3      H1             16.5310715014        2.6244464066       37.2147721845  TIP3      2008            0.0000000000
     30924      2208  TIP3      H2             17.1934228003        1.9143608539       36.0581785234  TIP3      2008            0.0000000000
     30925      2209  TIP3      OH2            -0.0708930115        2.3374395389       24.9795537159  TIP3      2009            0.0000000000
     30926      2209  TIP3      H1             -0.8077445968        1.8113436962       24.6304220132  TIP3      2009            0.0000000000
     30927      2209  TIP3      H2              0.4022450220        2.6093094421       24.1718388155  TIP3      2009            0.0000000000
     30928      2210  TIP3      OH2            14.6654291177       16.6869129719       26.7527972405  TIP3      2010            0.0000000000
     30929      2210  TIP3      H1             15.1560515348       16.2487195375       26.0526124588  TIP3      2010            0.0000000000
     30930      2210  TIP3      H2             15.3103206707       17.3349612577       27.0858908330  TIP3      2010            0.0000000000
     30931      2211  TIP3      OH2            -0.0764076199        0.5327084150       33.0545298993  TIP3      2011            0.0000000000
     30932      2211  TIP3      H1             -0.7170805917        0.3084294646       33.7498616584  TIP3      2011            0.0000000000
     30933      2211  TIP3      H2             -0.5116707551        1.2791752308       32.6028367161  TIP3      2011            0.0000000000
     30934      2212  TIP3      OH2             2.1397670745       13.7140349395       37.1058730018  TIP3      2012            0.0000000000
     30935      2212  TIP3      H1              1.2897713622       14.0532106292       36.7939698811  TIP3      2012            0.0000000000
     30936      2212  TIP3      H2              1.9319483374       13.3653822550       37.9815216692  TIP3      2012            0.0000000000
     30937      2213  TIP3      OH2             4.7925676652       15.3950706682       33.7374775257  TIP3      2013            0.0000000000
     30938      2213  TIP3      H1              5.0016398918       16.3061876484       33.4421908270  TIP3      2013            0.0000000000
     30939      2213  TIP3      H2              5.6784033724       14.9959197249       33.7830147849  TIP3      2013            0.0000000000
     30940      2214  TIP3      OH2             9.2008343596       16.4302381388       36.2848065537  TIP3      2014            0.0000000000
     30941      2214  TIP3      H1              9.2286726034       16.1441436030       37.2283641720  TIP3      2014            0.0000000000
     30942      2214  TIP3      H2             10.1189484834       16.7582345700       36.1698236650  TIP3      2014            0.0000000000
     30943      2215  TIP3      OH2            11.4758495391       17.7551941527       35.6624224987  TIP3      2015            0.0000000000
     30944      2215  TIP3      H1             12.2901600798       17.2561912784       35.5262355603  TIP3      2015            0.0000000000
     30945      2215  TIP3      H2             11.7169171907       18.2614391008       36.4762578836  TIP3      2015            0.0000000000
     30946      2216  TIP3      OH2            16.6739107380        0.0233188039       34.8864824675  TIP3      2016            0.0000000000
     30947      2216  TIP3      H1             15.9327145904        0.3436478632       34.3577011434  TIP3      2016            0.0000000000
     30948      2216  TIP3      H2             16.8580490453       -0.8565867756       34.4759469932  TIP3      2016            0.0000000000
     30949      2217  TIP3      OH2             2.4866828217       18.2044778523       33.4329056885  TIP3      2017            0.0000000000
     30950      2217  TIP3      H1              1.6783930015       18.6983664099       33.1725645625  TIP3      2017            0.0000000000
     30951      2217  TIP3      H2              2.3910990224       18.1415910549       34.3897007052  TIP3      2017            0.0000000000
     30952      2218  TIP3      OH2             4.9130040068       17.7265847982       32.3682012009  TIP3      2018            0.0000000000
     30953      2218  TIP3      H1              3.9948472199       17.8970397114       32.6968832595  TIP3      2018            0.0000000000
     30954      2218  TIP3      H2              4.9227904306       18.2877468125       31.5722320167  TIP3      2018            0.0000000000
     30955      2219  TIP3      OH2             9.3549139198       17.3457976469       31.2031688696  TIP3      2019            0.0000000000
     30956      2219  TIP3      H1              8.7864015872       17.8843762676       30.6308401467  TIP3      2019            0.0000000000
     30957      2219  TIP3      H2              9.5913311330       17.9814648634       31.9124718744  TIP3      2019            0.0000000000
     30958      2220  TIP3      OH2            11.7209119398       16.2303511356       32.9623546029  TIP3      2020            0.0000000000
     30959      2220  TIP3      H1             11.1647526211       16.9658090060       33.2773333630  TIP3      2020            0.0000000000
     30960      2220  TIP3      H2             12.5882501681       16.6768097951       32.9315963711  TIP3      2020            0.0000000000
     30961      2221  TIP3      OH2            14.0087883213       17.8175174864       32.7368580853  TIP3      2021            0.0000000000
     30962      2221  TIP3      H1             14.1495178759       18.7611465757       32.5189028672  TIP3      2021            0.0000000000
     30963      2221  TIP3      H2             14.5095065707       17.3710368572       32.0152218922  TIP3      2021            0.0000000000
     30964      2222  TIP3      OH2             1.7942295603       16.6385393108       30.4954223086  TIP3      2022            0.0000000000
     30965      2222  TIP3      H1              1.6046694550       16.1293469735       31.3171830432  TIP3      2022            0.0000000000
     30966      2222  TIP3      H2              2.7011883054       16.3133787761       30.2724416180  TIP3      2022            0.0000000000
     30967      2223  TIP3      OH2             3.9998942700       15.7241751132       29.3580407123  TIP3      2023            0.0000000000
     30968      2223  TIP3      H1              3.8955449556       14.7598244018       29.4799072430  TIP3      2023            0.0000000000
     30969      2223  TIP3      H2              4.9707360993       15.8402213593       29.5057643140  TIP3      2023            0.0000000000
     30970      2224  TIP3      OH2             6.5606594308       15.8136337964       30.0078706100  TIP3      2024            0.0000000000
     30971      2224  TIP3      H1              6.7589860499       14.8865476484       29.8328317328  TIP3      2024            0.0000000000
     30972      2224  TIP3      H2              6.5664145443       15.8778500741       30.9790290150  TIP3      2024            0.0000000000
     30973      2225  TIP3      OH2            10.2263822946        1.1098524355       29.0274935266  TIP3      2025            0.0000000000
     30974      2225  TIP3      H1              9.3904753856        0.9425146728       29.4853579855  TIP3      2025            0.0000000000
     30975      2225  TIP3      H2             10.1681655414        0.4455880979       28.3214985943  TIP3      2025            0.0000000000
     30976      2226  TIP3      OH2             2.1586735614        0.0839922750       27.0815045742  TIP3      2026            0.0000000000
     30977      2226  TIP3      H1              1.2442794180       -0.0861583417       26.7709978189  TIP3      2026            0.0000000000
     30978      2226  TIP3      H2              2.6001130831       -0.7812662581       26.9177654005  TIP3      2026            0.0000000000
     30979      2227  TIP3      OH2             6.2626908103       -0.2123867931       26.7023979883  TIP3      2027            0.0000000000
     30980      2227  TIP3      H1              6.8976978332        0.1206230455       26.0567533092  TIP3      2027            0.0000000000
     30981      2227  TIP3      H2              6.7968894755       -0.1951494426       27.5120081294  TIP3      2027            0.0000000000
     30982      2228  TIP3      OH2             7.6835186326        2.6225515468       23.8146059626  TIP3      2028            0.0000000000
     30983      2228  TIP3      H1              8.0572976278        1.9516733602       24.4132818788  TIP3      2028            0.0000000000
     30984      2228  TIP3      H2              8.4061001783        3.2659519452       23.8396804881  TIP3      2028            0.0000000000
     30985      2229  TIP3      OH2             1.9818792954        0.7700476410       36.3851055802  TIP3      2029            0.0000000000
     30986      2229  TIP3      H1              1.5364425630       -0.0945227395       36.4541188664  TIP3      2029            0.0000000000
     30987      2229  TIP3      H2              2.6970884741        0.6803141237       37.0559534049  TIP3      2029            0.0000000000
     30988      2230  TIP3      OH2             3.9659269429        0.0949025884       38.2447050959  TIP3      2030            0.0000000000
     30989      2230  TIP3      H1              4.8920784176       -0.0238139006       37.9793112683  TIP3      2030            0.0000000000
     30990      2230  TIP3      H2              3.7540485310       -0.8413202259       38.4213163695  TIP3      2030            0.0000000000
     30991      2231  TIP3      OH2            12.5610971652       -0.5387865223       38.3411686715  TIP3      2031            0.0000000000
     30992      2231  TIP3      H1             12.4809068060       -1.2903727409       38.9740462674  TIP3      2031            0.0000000000
     30993      2231  TIP3      H2             13.4649740851       -0.7054791774       38.0104632238  TIP3      2031            0.0000000000
     30994      2232  TIP3      OH2            15.7018448270       15.5133421656       36.6194989114  TIP3      2032            0.0000000000
     30995      2232  TIP3      H1             15.0415056585       15.4508850787       35.8848265266  TIP3      2032            0.0000000000
     30996      2232  TIP3      H2             15.5079729766       16.4165090704       36.9236282223  TIP3      2032            0.0000000000
     30997      2233  TIP3      OH2            30.4201773782        9.3266011025       26.4772716214  TIP3      2033            0.0000000000
     30998      2233  TIP3      H1             30.7566398631       10.1376638250       26.8957270619  TIP3      2033            0.0000000000
     30999      2233  TIP3      H2             29.5065939758        9.6145919265       26.3219075501  TIP3      2033            0.0000000000
     31000      2234  TIP3      OH2            29.1434536839        8.2881229348       30.0691036157  TIP3      2034            0.0000000000
     31001      2234  TIP3      H1             29.3424277722        7.7667399534       30.8783598760  TIP3      2034            0.0000000000
     31002      2234  TIP3      H2             28.4985309164        7.7244531556       29.5995073393  TIP3      2034            0.0000000000
     31003      2235  TIP3      OH2            21.2460513852        8.3069246253       31.7076037636  TIP3      2035            0.0000000000
     31004      2235  TIP3      H1             21.2351383321        7.4816728026       32.2149355432  TIP3      2035            0.0000000000
     31005      2235  TIP3      H2             21.8723257065        8.8301888314       32.2456647174  TIP3      2035            0.0000000000
     31006      2236  TIP3      OH2            32.8078376115       11.3078450222       29.0131326088  TIP3      2036            0.0000000000
     31007      2236  TIP3      H1             32.8007651455       10.6705200494       29.7464089271  TIP3      2036            0.0000000000
     31008      2236  TIP3      H2             32.6850272144       12.1472252588       29.4882534875  TIP3      2036            0.0000000000
     31009      2237  TIP3      OH2            22.2681430128       12.8499068520       29.9684237328  TIP3      2037            0.0000000000
     31010      2237  TIP3      H1             22.0127028227       11.9072912368       29.8134366488  TIP3      2037            0.0000000000
     31011      2237  TIP3      H2             23.2309170175       12.7123630447       29.9998002089  TIP3      2037            0.0000000000
     31012      2238  TIP3      OH2            19.4292499013        8.2526412040       27.9213094634  TIP3      2038            0.0000000000
     31013      2238  TIP3      H1             20.0081600026        7.5720125697       28.3287227477  TIP3      2038            0.0000000000
     31014      2238  TIP3      H2             20.0405060758        8.9831606744       27.7781540292  TIP3      2038            0.0000000000
     31015      2239  TIP3      OH2            27.4481645705       10.5252417149       30.9713094346  TIP3      2039            0.0000000000
     31016      2239  TIP3      H1             27.9315074832        9.8751563993       30.4211134356  TIP3      2039            0.0000000000
     31017      2239  TIP3      H2             28.2209694302       10.9789300780       31.3855131936  TIP3      2039            0.0000000000
     31018      2240  TIP3      OH2            36.1636562837        2.6631005245       31.2384741689  TIP3      2040            0.0000000000
     31019      2240  TIP3      H1             36.1045391668        3.3018541984       31.9741046427  TIP3      2040            0.0000000000
     31020      2240  TIP3      H2             36.7769575982        3.1291888804       30.6493633861  TIP3      2040            0.0000000000
     31021      2241  TIP3      OH2            30.8557553311        5.3447404026       31.0914098152  TIP3      2041            0.0000000000
     31022      2241  TIP3      H1             31.2634246397        4.5162958245       31.3890038685  TIP3      2041            0.0000000000
     31023      2241  TIP3      H2             30.6809324489        5.1196497679       30.1549213976  TIP3      2041            0.0000000000
     31024      2242  TIP3      OH2            23.8536948568        3.1671756890       27.9357329632  TIP3      2042            0.0000000000
     31025      2242  TIP3      H1             23.8790866427        4.0497621925       27.4925115338  TIP3      2042            0.0000000000
     31026      2242  TIP3      H2             23.3360106529        2.6414015016       27.2899377709  TIP3      2042            0.0000000000
     31027      2243  TIP3      OH2            31.6362457213        3.5510212593       26.6311437158  TIP3      2043            0.0000000000
     31028      2243  TIP3      H1             31.9759529633        3.1732392097       27.4756726206  TIP3      2043            0.0000000000
     31029      2243  TIP3      H2             32.4559009665        3.9880297146       26.3269762237  TIP3      2043            0.0000000000
     31030      2244  TIP3      OH2            20.8395366718        6.2732241661       29.1364296310  TIP3      2044            0.0000000000
     31031      2244  TIP3      H1             21.4192637427        5.6853807811       29.6640558802  TIP3      2044            0.0000000000
     31032      2244  TIP3      H2             20.8380106983        5.7901152032       28.2820668446  TIP3      2044            0.0000000000
     31033      2245  TIP3      OH2            25.3149052188        7.3812159728       28.4885036520  TIP3      2045            0.0000000000
     31034      2245  TIP3      H1             26.0804204519        6.9814941981       28.9575555016  TIP3      2045            0.0000000000
     31035      2245  TIP3      H2             25.1212700758        6.6877008087       27.8327517479  TIP3      2045            0.0000000000
     31036      2246  TIP3      OH2            36.1255727138        3.6189631508       33.9769926989  TIP3      2046            0.0000000000
     31037      2246  TIP3      H1             35.6526631025        4.3647899747       33.5606610400  TIP3      2046            0.0000000000
     31038      2246  TIP3      H2             36.8607950361        4.1078190434       34.3830241417  TIP3      2046            0.0000000000
     31039      2247  TIP3      OH2            22.7961730535        2.5508974808       32.3506307199  TIP3      2047            0.0000000000
     31040      2247  TIP3      H1             22.3977984122        2.9930659954       31.5797218182  TIP3      2047            0.0000000000
     31041      2247  TIP3      H2             22.1529849281        2.7761861492       33.0560282729  TIP3      2047            0.0000000000
     31042      2248  TIP3      OH2            29.5941033378       11.8517566686       25.7229603632  TIP3      2048            0.0000000000
     31043      2248  TIP3      H1             29.3255583800       11.9319504657       24.7815603393  TIP3      2048            0.0000000000
     31044      2248  TIP3      H2             29.3403932420       12.7074890828       26.0473125582  TIP3      2048            0.0000000000
     31045      2249  TIP3      OH2            24.9909366201       10.0375756561       31.9259228444  TIP3      2049            0.0000000000
     31046      2249  TIP3      H1             24.5735726632       10.8345596659       32.3235063697  TIP3      2049            0.0000000000
     31047      2249  TIP3      H2             25.7592185245       10.4439080418       31.4651391696  TIP3      2049            0.0000000000
     31048      2250  TIP3      OH2            33.0856268972        3.2475399360       28.8123311535  TIP3      2050            0.0000000000
     31049      2250  TIP3      H1             32.6838456495        2.6149436323       29.4390619233  TIP3      2050            0.0000000000
     31050      2250  TIP3      H2             34.0359927329        3.1007655909       28.9004355257  TIP3      2050            0.0000000000
     31051      2251  TIP3      OH2            22.3593380341        4.2383336312       30.1032865770  TIP3      2051            0.0000000000
     31052      2251  TIP3      H1             22.9956584557        4.8280692323       30.5823744565  TIP3      2051            0.0000000000
     31053      2251  TIP3      H2             22.9331520256        3.8842925057       29.3861615224  TIP3      2051            0.0000000000
     31054      2252  TIP3      OH2            23.6584245257       12.0969126386       33.0086963046  TIP3      2052            0.0000000000
     31055      2252  TIP3      H1             23.5400197360       13.0031772522       32.6700406258  TIP3      2052            0.0000000000
     31056      2252  TIP3      H2             22.7993403046       11.9979918003       33.4860484572  TIP3      2052            0.0000000000
     31057      2253  TIP3      OH2            33.1953350715       13.5178892839       30.8082433943  TIP3      2053            0.0000000000
     31058      2253  TIP3      H1             32.2555981141       13.7194560385       30.9874007850  TIP3      2053            0.0000000000
     31059      2253  TIP3      H2             33.4563201241       14.3572907704       30.4071770111  TIP3      2053            0.0000000000
     31060      2254  TIP3      OH2            33.4873930758        2.2030574250       31.9947522731  TIP3      2054            0.0000000000
     31061      2254  TIP3      H1             32.6764873952        2.4939221602       31.5032937773  TIP3      2054            0.0000000000
     31062      2254  TIP3      H2             34.1876497914        2.3449052816       31.3319247737  TIP3      2054            0.0000000000
     31063      2255  TIP3      OH2            26.2619649629       -0.1732581624       29.6637826140  TIP3      2055            0.0000000000
     31064      2255  TIP3      H1             26.0218722291       -1.1015488008       29.5465163110  TIP3      2055            0.0000000000
     31065      2255  TIP3      H2             25.3818583736        0.2112690571       29.9189997741  TIP3      2055            0.0000000000
     31066      2256  TIP3      OH2            34.2041783761       11.6805784349       34.6802592424  TIP3      2056            0.0000000000
     31067      2256  TIP3      H1             34.3053409202       11.0751292990       33.9035772854  TIP3      2056            0.0000000000
     31068      2256  TIP3      H2             34.2504421831       12.5430736128       34.2092254482  TIP3      2056            0.0000000000
     31069      2257  TIP3      OH2            35.7017305902        8.0927800366       32.5392830609  TIP3      2057            0.0000000000
     31070      2257  TIP3      H1             35.1753219260        8.9166938626       32.4181530147  TIP3      2057            0.0000000000
     31071      2257  TIP3      H2             36.4442449610        8.2676295009       31.9218548801  TIP3      2057            0.0000000000
     31072      2258  TIP3      OH2            32.2890559269        8.0027157399       24.9716535796  TIP3      2058            0.0000000000
     31073      2258  TIP3      H1             31.7000981459        8.6459881421       25.4237290604  TIP3      2058            0.0000000000
     31074      2258  TIP3      H2             33.0049461872        7.9516107907       25.6397172956  TIP3      2058            0.0000000000
     31075      2259  TIP3      OH2            32.2701402229        7.1387820883       34.3675521697  TIP3      2059            0.0000000000
     31076      2259  TIP3      H1             31.9412531983        7.9617226938       34.7714846683  TIP3      2059            0.0000000000
     31077      2259  TIP3      H2             31.6781053422        7.1021221282       33.5966851304  TIP3      2059            0.0000000000
     31078      2260  TIP3      OH2            23.9908999463        9.2811677976       27.1598064960  TIP3      2060            0.0000000000
     31079      2260  TIP3      H1             23.4634964173        8.7875063184       26.5034210122  TIP3      2060            0.0000000000
     31080      2260  TIP3      H2             24.5683582562        8.5725412907       27.5163792837  TIP3      2060            0.0000000000
     31081      2261  TIP3      OH2            25.2571810077       12.6134247960       29.7990315254  TIP3      2061            0.0000000000
     31082      2261  TIP3      H1             25.3437726256       12.3250868413       28.8771329843  TIP3      2061            0.0000000000
     31083      2261  TIP3      H2             26.0038250279       12.1571531908       30.2259576208  TIP3      2061            0.0000000000
     31084      2262  TIP3      OH2            24.1193159442        7.8804297058       30.8696633676  TIP3      2062            0.0000000000
     31085      2262  TIP3      H1             24.5069780237        7.9413369614       29.9656234064  TIP3      2062            0.0000000000
     31086      2262  TIP3      H2             24.5179096042        8.6743008453       31.2969232790  TIP3      2062            0.0000000000
     31087      2263  TIP3      OH2            30.6563141789       13.7836471977       31.4723662514  TIP3      2063            0.0000000000
     31088      2263  TIP3      H1             30.5036183433       14.3836731587       32.2280657049  TIP3      2063            0.0000000000
     31089      2263  TIP3      H2             30.4859286072       12.9046556233       31.8626800474  TIP3      2063            0.0000000000
     31090      2264  TIP3      OH2            25.2086257834       12.5423404063       35.2345178108  TIP3      2064            0.0000000000
     31091      2264  TIP3      H1             24.5152344358       13.0112049769       35.7544010327  TIP3      2064            0.0000000000
     31092      2264  TIP3      H2             24.7314354921       12.3435983992       34.3968069261  TIP3      2064            0.0000000000
     31093      2265  TIP3      OH2            22.2408317516        8.7954826238       34.3800611497  TIP3      2065            0.0000000000
     31094      2265  TIP3      H1             22.5036699878        9.5502394808       34.9237223460  TIP3      2065            0.0000000000
     31095      2265  TIP3      H2             21.5161574038        8.4531637820       34.9251551225  TIP3      2065            0.0000000000
     31096      2266  TIP3      OH2            23.5397546158       14.4116196125       36.0338142223  TIP3      2066            0.0000000000
     31097      2266  TIP3      H1             23.2873840541       14.5313855562       35.1023284314  TIP3      2066            0.0000000000
     31098      2266  TIP3      H2             22.6816513950       14.1498646377       36.4382042233  TIP3      2066            0.0000000000
     31099      2267  TIP3      OH2            34.4665233103        0.1015939240       22.9721172999  TIP3      2067            0.0000000000
     31100      2267  TIP3      H1             33.6837768512       -0.2201277171       22.5128989523  TIP3      2067            0.0000000000
     31101      2267  TIP3      H2             35.1227298089        0.0780651528       22.2460406090  TIP3      2067            0.0000000000
     31102      2268  TIP3      OH2            22.4725248607        8.2587797275       25.1610464091  TIP3      2068            0.0000000000
     31103      2268  TIP3      H1             22.7931121090        8.9915735883       24.6256349207  TIP3      2068            0.0000000000
     31104      2268  TIP3      H2             22.1144893864        7.6419468330       24.5166710148  TIP3      2068            0.0000000000
     31105      2269  TIP3      OH2            36.2501439680       14.1727737073       21.9648318768  TIP3      2069            0.0000000000
     31106      2269  TIP3      H1             35.9914024095       14.5221598929       22.8399122230  TIP3      2069            0.0000000000
     31107      2269  TIP3      H2             37.1891161124       13.9604445791       22.0307348597  TIP3      2069            0.0000000000
     31108      2270  TIP3      OH2            19.2286952522       11.0607547826       33.6670959205  TIP3      2070            0.0000000000
     31109      2270  TIP3      H1             18.7821440699       11.0248598651       32.8109659818  TIP3      2070            0.0000000000
     31110      2270  TIP3      H2             19.4758781341       10.1291988930       33.8409110379  TIP3      2070            0.0000000000
     31111      2271  TIP3      OH2            18.6433525425       13.6033394465       30.4141548809  TIP3      2071            0.0000000000
     31112      2271  TIP3      H1             19.5566667075       13.3039940902       30.3325368572  TIP3      2071            0.0000000000
     31113      2271  TIP3      H2             18.7532617880       14.3951925514       30.9429350558  TIP3      2071            0.0000000000
     31114      2272  TIP3      OH2            36.9493111885       14.3666073327       36.3356405942  TIP3      2072            0.0000000000
     31115      2272  TIP3      H1             36.8391074889       13.5251696363       35.8758550713  TIP3      2072            0.0000000000
     31116      2272  TIP3      H2             36.0606184755       14.4424108505       36.7558415446  TIP3      2072            0.0000000000
     31117      2273  TIP3      OH2            27.7998677716       13.7704026805       35.2275447958  TIP3      2073            0.0000000000
     31118      2273  TIP3      H1             27.8495137683       14.5687176962       35.7769558769  TIP3      2073            0.0000000000
     31119      2273  TIP3      H2             26.8720985092       13.4528174220       35.3125887876  TIP3      2073            0.0000000000
     31120      2274  TIP3      OH2            22.0520720395       16.4123750868       26.7904297217  TIP3      2074            0.0000000000
     31121      2274  TIP3      H1             22.2993044257       16.0735523147       27.6843273603  TIP3      2074            0.0000000000
     31122      2274  TIP3      H2             21.1807755718       15.9897628851       26.6828370424  TIP3      2074            0.0000000000
     31123      2275  TIP3      OH2            33.8428804463        5.9540863516       36.5516354085  TIP3      2075            0.0000000000
     31124      2275  TIP3      H1             33.3647822955        6.2755060321       35.7680448497  TIP3      2075            0.0000000000
     31125      2275  TIP3      H2             34.0868290316        5.0396864104       36.3108452368  TIP3      2075            0.0000000000
     31126      2276  TIP3      OH2            21.5271297829       12.1261720908       34.5732566528  TIP3      2076            0.0000000000
     31127      2276  TIP3      H1             21.5260765427       11.7395774961       35.4871582682  TIP3      2076            0.0000000000
     31128      2276  TIP3      H2             20.6227091721       11.9007277837       34.2530925523  TIP3      2076            0.0000000000
     31129      2277  TIP3      OH2            24.1039764271        0.9920777550       30.6357075029  TIP3      2077            0.0000000000
     31130      2277  TIP3      H1             23.2283953196        1.0606088368       30.2067945613  TIP3      2077            0.0000000000
     31131      2277  TIP3      H2             23.8941851152        1.4095804014       31.4956502091  TIP3      2077            0.0000000000
     31132      2278  TIP3      OH2            28.8996675075        0.2505341475       33.6887834722  TIP3      2078            0.0000000000
     31133      2278  TIP3      H1             29.2734151685       -0.2120739730       34.4662132101  TIP3      2078            0.0000000000
     31134      2278  TIP3      H2             27.9297656932        0.2125318281       33.8596926019  TIP3      2078            0.0000000000
     31135      2279  TIP3      OH2            31.6872709905        4.1155511279       34.6707309659  TIP3      2079            0.0000000000
     31136      2279  TIP3      H1             31.2324360854        3.6749260235       35.4294010876  TIP3      2079            0.0000000000
     31137      2279  TIP3      H2             31.7395719900        5.0323919597       34.9794478792  TIP3      2079            0.0000000000
     31138      2280  TIP3      OH2            33.0601286097        8.4129995893       21.0905008293  TIP3      2080            0.0000000000
     31139      2280  TIP3      H1             32.6088438900        9.1243417976       20.6379791648  TIP3      2080            0.0000000000
     31140      2280  TIP3      H2             33.0398978400        8.7066986257       22.0305437165  TIP3      2080            0.0000000000
     31141      2281  TIP3      OH2            28.7431147536        3.6177100198       21.4611168040  TIP3      2081            0.0000000000
     31142      2281  TIP3      H1             28.2335765261        3.2443249269       22.2036449904  TIP3      2081            0.0000000000
     31143      2281  TIP3      H2             28.0709192155        3.4935460168       20.7728105750  TIP3      2081            0.0000000000
     31144      2282  TIP3      OH2            24.1163967892        5.4611788788       31.7419640231  TIP3      2082            0.0000000000
     31145      2282  TIP3      H1             23.3133664159        5.5375940277       32.2930777129  TIP3      2082            0.0000000000
     31146      2282  TIP3      H2             24.1814893527        6.4029377496       31.4304419681  TIP3      2082            0.0000000000
     31147      2283  TIP3      OH2            23.7202004285        5.4993969316       26.6891140367  TIP3      2083            0.0000000000
     31148      2283  TIP3      H1             22.7681232753        5.6043171984       26.5044637005  TIP3      2083            0.0000000000
     31149      2283  TIP3      H2             24.1086077349        5.5174773066       25.7777100500  TIP3      2083            0.0000000000
     31150      2284  TIP3      OH2            29.4864949002        6.4667525541       25.2544533623  TIP3      2084            0.0000000000
     31151      2284  TIP3      H1             29.7850404247        7.3840348038       25.3405514765  TIP3      2084            0.0000000000
     31152      2284  TIP3      H2             30.3005471106        5.9860244658       25.0103171792  TIP3      2084            0.0000000000
     31153      2285  TIP3      OH2            28.3921328343        6.4986042777       36.7398264090  TIP3      2085            0.0000000000
     31154      2285  TIP3      H1             27.9877050511        5.6814264976       37.1092757817  TIP3      2085            0.0000000000
     31155      2285  TIP3      H2             29.1680691549        6.5971560910       37.3069038724  TIP3      2085            0.0000000000
     31156      2286  TIP3      OH2            30.4952103466        5.8115612446       28.2680953595  TIP3      2086            0.0000000000
     31157      2286  TIP3      H1             30.2659026497        6.6200687258       27.7790763218  TIP3      2086            0.0000000000
     31158      2286  TIP3      H2             30.6880222907        5.1695855670       27.5608548541  TIP3      2086            0.0000000000
     31159      2287  TIP3      OH2            21.6124694661        5.6409596442       32.8967397989  TIP3      2087            0.0000000000
     31160      2287  TIP3      H1             21.9671115050        6.0752346705       33.6854585848  TIP3      2087            0.0000000000
     31161      2287  TIP3      H2             21.2847357503        4.7924655646       33.2560088288  TIP3      2087            0.0000000000
     31162      2288  TIP3      OH2            23.9828606691        4.0003147020       20.4265643427  TIP3      2088            0.0000000000
     31163      2288  TIP3      H1             24.5296261950        3.2501225456       20.7668193070  TIP3      2088            0.0000000000
     31164      2288  TIP3      H2             23.4699617042        3.5589878435       19.7178226034  TIP3      2088            0.0000000000
     31165      2289  TIP3      OH2            18.4474256678        2.8577473538       27.5916443819  TIP3      2089            0.0000000000
     31166      2289  TIP3      H1             19.1560855824        2.9052129900       28.2642988860  TIP3      2089            0.0000000000
     31167      2289  TIP3      H2             18.8970404462        2.9809162778       26.7304938507  TIP3      2089            0.0000000000
     31168      2290  TIP3      OH2            19.5451402195        3.6255831957       22.8038341207  TIP3      2090            0.0000000000
     31169      2290  TIP3      H1             20.2955269921        4.0478017909       22.3724430207  TIP3      2090            0.0000000000
     31170      2290  TIP3      H2             18.8830529254        4.3363872673       22.7012103709  TIP3      2090            0.0000000000
     31171      2291  TIP3      OH2            29.8164690482        7.2832375947       32.5669631732  TIP3      2091            0.0000000000
     31172      2291  TIP3      H1             30.2859728016        6.5702358443       32.0696477289  TIP3      2091            0.0000000000
     31173      2291  TIP3      H2             29.2031676137        6.7539974386       33.1302817962  TIP3      2091            0.0000000000
     31174      2292  TIP3      OH2            26.6172365703        3.3317044477       27.8288973869  TIP3      2092            0.0000000000
     31175      2292  TIP3      H1             25.6507473003        3.3066604189       28.0017951141  TIP3      2092            0.0000000000
     31176      2292  TIP3      H2             26.9751234520        2.7384005605       28.5043524643  TIP3      2092            0.0000000000
     31177      2293  TIP3      OH2            20.9622496462        4.9388821190       26.7121036957  TIP3      2093            0.0000000000
     31178      2293  TIP3      H1             20.4286580246        5.1699950756       25.9458985342  TIP3      2093            0.0000000000
     31179      2293  TIP3      H2             21.4310873364        4.1464414106       26.3819016426  TIP3      2093            0.0000000000
     31180      2294  TIP3      OH2            24.8944500885        5.3954701073       24.3035742975  TIP3      2094            0.0000000000
     31181      2294  TIP3      H1             25.8145443002        5.1498934569       24.4959703134  TIP3      2094            0.0000000000
     31182      2294  TIP3      H2             24.7358050546        4.9622400619       23.4556219938  TIP3      2094            0.0000000000
     31183      2295  TIP3      OH2            31.1691257134        2.5030540957       30.8146956456  TIP3      2095            0.0000000000
     31184      2295  TIP3      H1             30.4878222631        2.4210470592       31.5086866420  TIP3      2095            0.0000000000
     31185      2295  TIP3      H2             30.6153648708        2.1556802357       30.0700672471  TIP3      2095            0.0000000000
     31186      2296  TIP3      OH2            23.4103725569        6.3760254546       21.6132038827  TIP3      2096            0.0000000000
     31187      2296  TIP3      H1             22.6774773593        5.7817804003       21.3730004614  TIP3      2096            0.0000000000
     31188      2296  TIP3      H2             24.1256600224        5.9646139129       21.0948870604  TIP3      2096            0.0000000000
     31189      2297  TIP3      OH2            34.1777608351       17.7896161461       37.4274499396  TIP3      2097            0.0000000000
     31190      2297  TIP3      H1             34.6193263579       18.1607601402       36.6366364403  TIP3      2097            0.0000000000
     31191      2297  TIP3      H2             34.8380003897       17.9981075076       38.1119445987  TIP3      2097            0.0000000000
     31192      2298  TIP3      OH2            21.7865624921       10.5939075368       36.8647042545  TIP3      2098            0.0000000000
     31193      2298  TIP3      H1             22.4954540388       10.7179608028       37.5247909078  TIP3      2098            0.0000000000
     31194      2298  TIP3      H2             21.0042998901       10.4871217708       37.4484042860  TIP3      2098            0.0000000000
     31195      2299  TIP3      OH2            27.5657617400        6.0462552491       29.4269542801  TIP3      2099            0.0000000000
     31196      2299  TIP3      H1             28.2346333347        5.5753620993       28.9029031909  TIP3      2099            0.0000000000
     31197      2299  TIP3      H2             27.2718627495        5.3488170814       30.0355677305  TIP3      2099            0.0000000000
     31198      2300  TIP3      OH2            22.2576792677        2.2227576970       25.8863902604  TIP3      2100            0.0000000000
     31199      2300  TIP3      H1             21.8542881307        1.4164681808       26.2665586621  TIP3      2100            0.0000000000
     31200      2300  TIP3      H2             22.9567363245        1.8442263708       25.3327329187  TIP3      2100            0.0000000000
     31201      2301  TIP3      OH2            26.3628634490        4.1555968796       31.9493476366  TIP3      2101            0.0000000000
     31202      2301  TIP3      H1             25.5487804430        4.7074557113       31.9942764673  TIP3      2101            0.0000000000
     31203      2301  TIP3      H2             27.0287250471        4.7240125913       32.3791112698  TIP3      2101            0.0000000000
     31204      2302  TIP3      OH2            26.8972272467       10.4946282054       23.7877835451  TIP3      2102            0.0000000000
     31205      2302  TIP3      H1             26.1817489894        9.8978353324       23.4834228671  TIP3      2102            0.0000000000
     31206      2302  TIP3      H2             26.5225546429       10.7674432654       24.6534538846  TIP3      2102            0.0000000000
     31207      2303  TIP3      OH2            34.2711307867       10.4159927625       32.3940792397  TIP3      2103            0.0000000000
     31208      2303  TIP3      H1             34.7567110089       10.8090520795       31.6463735811  TIP3      2103            0.0000000000
     31209      2303  TIP3      H2             33.4923381875       10.0322423519       31.9384854837  TIP3      2103            0.0000000000
     31210      2304  TIP3      OH2            31.4965936305        3.3000588495       21.9123842854  TIP3      2104            0.0000000000
     31211      2304  TIP3      H1             30.5780804665        3.5134024546       21.6643636953  TIP3      2104            0.0000000000
     31212      2304  TIP3      H2             31.8120455491        4.1198876173       22.3278660170  TIP3      2104            0.0000000000
     31213      2305  TIP3      OH2            28.2391581127       11.1226457823       34.8088595421  TIP3      2105            0.0000000000
     31214      2305  TIP3      H1             28.1411358809       10.6997891522       35.6720346765  TIP3      2105            0.0000000000
     31215      2305  TIP3      H2             28.1692307660       12.0674407844       35.0529021464  TIP3      2105            0.0000000000
     31216      2306  TIP3      OH2            31.8859870650        5.6209059085       23.7253704408  TIP3      2106            0.0000000000
     31217      2306  TIP3      H1             32.5283996908        5.1020216714       24.2524405196  TIP3      2106            0.0000000000
     31218      2306  TIP3      H2             32.1178534604        6.5235229401       24.0467196039  TIP3      2106            0.0000000000
     31219      2307  TIP3      OH2            22.3700510903       10.0728420914       29.6175956981  TIP3      2107            0.0000000000
     31220      2307  TIP3      H1             22.9270298549        9.8139693708       28.8697092449  TIP3      2107            0.0000000000
     31221      2307  TIP3      H2             22.2406514368        9.2293586496       30.0998490804  TIP3      2107            0.0000000000
     31222      2308  TIP3      OH2            28.8289935566       12.1791494478       23.1781629238  TIP3      2108            0.0000000000
     31223      2308  TIP3      H1             28.4963635999       13.0816716149       23.3989166222  TIP3      2108            0.0000000000
     31224      2308  TIP3      H2             28.0468752534       11.5816311187       23.2754150055  TIP3      2108            0.0000000000
     31225      2309  TIP3      OH2            19.2070099017        8.5202910360       34.8780336203  TIP3      2109            0.0000000000
     31226      2309  TIP3      H1             19.1167705161        7.8705353754       35.5991358873  TIP3      2109            0.0000000000
     31227      2309  TIP3      H2             18.6694168904        8.1179834870       34.1656400036  TIP3      2109            0.0000000000
     31228      2310  TIP3      OH2            26.1049980408        7.9413716548       36.5870381801  TIP3      2110            0.0000000000
     31229      2310  TIP3      H1             25.6752177391        7.3533890239       35.9537599070  TIP3      2110            0.0000000000
     31230      2310  TIP3      H2             27.0051178509        7.5470522524       36.6252507832  TIP3      2110            0.0000000000
     31231      2311  TIP3      OH2            31.0488451824       13.2774687690       35.0237975623  TIP3      2111            0.0000000000
     31232      2311  TIP3      H1             30.1982818107       13.4580392489       34.6039564716  TIP3      2111            0.0000000000
     31233      2311  TIP3      H2             30.9055663354       13.7413374647       35.8716663553  TIP3      2111            0.0000000000
     31234      2312  TIP3      OH2            36.4962755096       11.2860241882       35.8768616670  TIP3      2112            0.0000000000
     31235      2312  TIP3      H1             35.6384420879       11.5973227514       35.4851274086  TIP3      2112            0.0000000000
     31236      2312  TIP3      H2             37.0493935387       11.1638911902       35.0699997653  TIP3      2112            0.0000000000
     31237      2313  TIP3      OH2            32.3305206417        9.2402103118       30.7667793614  TIP3      2113            0.0000000000
     31238      2313  TIP3      H1             31.4071837762        9.3668818613       30.4960796465  TIP3      2113            0.0000000000
     31239      2313  TIP3      H2             32.5619978055        8.4928439960       30.1778224871  TIP3      2113            0.0000000000
     31240      2314  TIP3      OH2            24.4971480455       13.6917931987       26.6946808850  TIP3      2114            0.0000000000
     31241      2314  TIP3      H1             24.6943925018       14.5395397418       26.2410459880  TIP3      2114            0.0000000000
     31242      2314  TIP3      H2             23.5384013231       13.6544492789       26.5949174025  TIP3      2114            0.0000000000
     31243      2315  TIP3      OH2            25.7347889044       11.1933523538       26.2141819811  TIP3      2115            0.0000000000
     31244      2315  TIP3      H1             25.3275979666       12.0393240034       26.4961349604  TIP3      2115            0.0000000000
     31245      2315  TIP3      H2             25.2076327645       10.5188710764       26.6963224303  TIP3      2115            0.0000000000
     31246      2316  TIP3      OH2            26.4472456411       15.3562347448       33.4578992631  TIP3      2116            0.0000000000
     31247      2316  TIP3      H1             27.1267261461       15.9027697081       33.0311092849  TIP3      2116            0.0000000000
     31248      2316  TIP3      H2             27.0249446826       14.8304939803       34.0630937443  TIP3      2116            0.0000000000
     31249      2317  TIP3      OH2            24.6164783400       16.2190229892       25.7904188633  TIP3      2117            0.0000000000
     31250      2317  TIP3      H1             23.7183595953       16.2401711232       26.1668493361  TIP3      2117            0.0000000000
     31251      2317  TIP3      H2             24.9336372184       17.0986215680       26.0745004401  TIP3      2117            0.0000000000
     31252      2318  TIP3      OH2            29.5967158045       11.1415203059       32.3826673685  TIP3      2118            0.0000000000
     31253      2318  TIP3      H1             29.1265130625       11.0657542148       33.2470965570  TIP3      2118            0.0000000000
     31254      2318  TIP3      H2             30.0298401299       10.2738759407       32.3752299187  TIP3      2118            0.0000000000
     31255      2319  TIP3      OH2            32.7012614306       15.6811138938       34.7496768431  TIP3      2119            0.0000000000
     31256      2319  TIP3      H1             31.8726592430       15.1974448083       34.5353423713  TIP3      2119            0.0000000000
     31257      2319  TIP3      H2             32.7853183583       16.3184369259       34.0031273495  TIP3      2119            0.0000000000
     31258      2320  TIP3      OH2            20.9231418667        3.1381371746       34.2597822462  TIP3      2120            0.0000000000
     31259      2320  TIP3      H1             20.2099824600        3.6259405654       34.7222219334  TIP3      2120            0.0000000000
     31260      2320  TIP3      H2             20.9208386227        2.3076024418       34.7769652474  TIP3      2120            0.0000000000
     31261      2321  TIP3      OH2            33.2460167006       10.2645839627       23.0752272460  TIP3      2121            0.0000000000
     31262      2321  TIP3      H1             32.6561031814       10.4927737204       23.8072218442  TIP3      2121            0.0000000000
     31263      2321  TIP3      H2             34.0180866197       10.8383738802       23.2363762878  TIP3      2121            0.0000000000
     31264      2322  TIP3      OH2            20.5479279428       14.8660037747       32.6073120941  TIP3      2122            0.0000000000
     31265      2322  TIP3      H1             21.1782334383       14.1305718932       32.6624844876  TIP3      2122            0.0000000000
     31266      2322  TIP3      H2             20.7738655423       15.3717417660       33.4036950287  TIP3      2122            0.0000000000
     31267      2323  TIP3      OH2            26.2065373560       13.6280804669       19.9670026990  TIP3      2123            0.0000000000
     31268      2323  TIP3      H1             25.7490362244       13.0893159895       19.3021397497  TIP3      2123            0.0000000000
     31269      2323  TIP3      H2             26.2776411042       13.0245993741       20.7111019342  TIP3      2123            0.0000000000
     31270      2324  TIP3      OH2            29.5756884651        3.0215874052       33.4935852982  TIP3      2124            0.0000000000
     31271      2324  TIP3      H1             30.4653097758        3.1412688462       33.8870581431  TIP3      2124            0.0000000000
     31272      2324  TIP3      H2             29.3370605599        2.1296752126       33.8064319841  TIP3      2124            0.0000000000
     31273      2325  TIP3      OH2            30.2532529795        2.4167249318       24.6109215075  TIP3      2125            0.0000000000
     31274      2325  TIP3      H1             30.6909787216        2.8036347570       23.8453379772  TIP3      2125            0.0000000000
     31275      2325  TIP3      H2             30.8496119720        2.7163206506       25.3345698819  TIP3      2125            0.0000000000
     31276      2326  TIP3      OH2            28.1712632979       14.8566798043       23.4124351451  TIP3      2126            0.0000000000
     31277      2326  TIP3      H1             27.2103561530       15.0249873183       23.4795219896  TIP3      2126            0.0000000000
     31278      2326  TIP3      H2             28.4145955853       15.4123883690       22.6606259135  TIP3      2126            0.0000000000
     31279      2327  TIP3      OH2            27.4200345175        4.7125860766       25.2969334934  TIP3      2127            0.0000000000
     31280      2327  TIP3      H1             28.0478159284        5.4476127670       25.4506689185  TIP3      2127            0.0000000000
     31281      2327  TIP3      H2             27.4302828677        4.2336815898       26.1469410181  TIP3      2127            0.0000000000
     31282      2328  TIP3      OH2            28.4354191592        5.5254410602       34.1339146815  TIP3      2128            0.0000000000
     31283      2328  TIP3      H1             28.4131636959        5.7839613989       35.0846981450  TIP3      2128            0.0000000000
     31284      2328  TIP3      H2             28.9146184990        4.6728162418       34.1053154074  TIP3      2128            0.0000000000
     31285      2329  TIP3      OH2            28.7654907784        1.3800412849       26.5589741169  TIP3      2129            0.0000000000
     31286      2329  TIP3      H1             27.9072675908        1.5953986324       26.1367950393  TIP3      2129            0.0000000000
     31287      2329  TIP3      H2             29.3937630477        1.7158854572       25.8759749727  TIP3      2129            0.0000000000
     31288      2330  TIP3      OH2            25.4906035393       15.3111825965       23.4478552237  TIP3      2130            0.0000000000
     31289      2330  TIP3      H1             25.6890349871       16.1413941060       22.9543773261  TIP3      2130            0.0000000000
     31290      2330  TIP3      H2             25.1622267521       15.7004914029       24.2936297500  TIP3      2130            0.0000000000
     31291      2331  TIP3      OH2            34.0015062427        3.1968717878       35.5603967239  TIP3      2131            0.0000000000
     31292      2331  TIP3      H1             33.1844145084        3.3726672491       35.0422609883  TIP3      2131            0.0000000000
     31293      2331  TIP3      H2             34.7043872414        3.3205364214       34.8873597528  TIP3      2131            0.0000000000
     31294      2332  TIP3      OH2            32.7554638760        7.1318442247       29.1434511483  TIP3      2132            0.0000000000
     31295      2332  TIP3      H1             32.0189078207        6.5120851830       28.9985245230  TIP3      2132            0.0000000000
     31296      2332  TIP3      H2             33.2655007550        6.6208447477       29.8152946302  TIP3      2132            0.0000000000
     31297      2333  TIP3      OH2            20.4699226633        5.7014932958       20.6967157272  TIP3      2133            0.0000000000
     31298      2333  TIP3      H1             19.8920221098        6.4938983904       20.6747232842  TIP3      2133            0.0000000000
     31299      2333  TIP3      H2             19.9787200411        5.0563392328       20.1764756831  TIP3      2133            0.0000000000
     31300      2334  TIP3      OH2            34.1193319263       16.2320315360       30.7913231075  TIP3      2134            0.0000000000
     31301      2334  TIP3      H1             33.9437656496       16.9793007936       30.1832551313  TIP3      2134            0.0000000000
     31302      2334  TIP3      H2             35.0948274668       16.2091785470       30.8002723947  TIP3      2134            0.0000000000
     31303      2335  TIP3      OH2            21.5727272914        0.4720665812       29.8698299037  TIP3      2135            0.0000000000
     31304      2335  TIP3      H1             21.5217209035        0.0977036823       28.9535140365  TIP3      2135            0.0000000000
     31305      2335  TIP3      H2             21.2733329834       -0.3209378063       30.3670976123  TIP3      2135            0.0000000000
     31306      2336  TIP3      OH2            20.2092086406       14.3294560885       26.0686066231  TIP3      2136            0.0000000000
     31307      2336  TIP3      H1             19.3840783299       14.7964575465       26.2080220852  TIP3      2136            0.0000000000
     31308      2336  TIP3      H2             20.4531404664       14.6049560585       25.1805188874  TIP3      2136            0.0000000000
     31309      2337  TIP3      OH2            19.4290302563       16.9191674822       37.0419377738  TIP3      2137            0.0000000000
     31310      2337  TIP3      H1             20.0460489471       16.7638403031       37.7884293631  TIP3      2137            0.0000000000
     31311      2337  TIP3      H2             18.9967806696       16.0481416467       36.9559176412  TIP3      2137            0.0000000000
     31312      2338  TIP3      OH2            23.9035402480       15.4656266504       38.5569303467  TIP3      2138            0.0000000000
     31313      2338  TIP3      H1             24.8218087746       15.6866678567       38.7484402580  TIP3      2138            0.0000000000
     31314      2338  TIP3      H2             23.8957359455       15.4393898248       37.5822221096  TIP3      2138            0.0000000000
     31315      2339  TIP3      OH2            28.4869706931       15.1321857147       20.4232132964  TIP3      2139            0.0000000000
     31316      2339  TIP3      H1             27.7585935864       14.5554969210       20.0975973094  TIP3      2139            0.0000000000
     31317      2339  TIP3      H2             29.2204167217       14.5053647729       20.6289993823  TIP3      2139            0.0000000000
     31318      2340  TIP3      OH2            30.5005183192       14.3890485904       37.4426153894  TIP3      2140            0.0000000000
     31319      2340  TIP3      H1             30.2030267190       13.5018124229       37.7636579646  TIP3      2140            0.0000000000
     31320      2340  TIP3      H2             31.3114007024       14.4769209460       37.9929620104  TIP3      2140            0.0000000000
     31321      2341  TIP3      OH2            19.2731558493       10.7028711253       37.9538574175  TIP3      2141            0.0000000000
     31322      2341  TIP3      H1             18.8793388582        9.8198599543       38.0105427482  TIP3      2141            0.0000000000
     31323      2341  TIP3      H2             18.7814226003       11.0832944754       37.1986951059  TIP3      2141            0.0000000000
     31324      2342  TIP3      OH2            26.0359054830       10.6009771526       36.9511928293  TIP3      2142            0.0000000000
     31325      2342  TIP3      H1             25.8188717805       11.1821189069       36.1930882656  TIP3      2142            0.0000000000
     31326      2342  TIP3      H2             25.9180308280        9.6855818062       36.5959912212  TIP3      2142            0.0000000000
     31327      2343  TIP3      OH2            31.8726888955       10.3761977722       35.0484557034  TIP3      2143            0.0000000000
     31328      2343  TIP3      H1             32.7626625004       10.7975297680       35.1043908259  TIP3      2143            0.0000000000
     31329      2343  TIP3      H2             31.3497266044       11.1915714904       35.1741691012  TIP3      2143            0.0000000000
     31330      2344  TIP3      OH2            20.7351479833        7.7282180535       37.7927094856  TIP3      2144            0.0000000000
     31331      2344  TIP3      H1             21.5583019714        7.2320453276       37.8794418480  TIP3      2144            0.0000000000
     31332      2344  TIP3      H2             20.7873615920        8.3225082120       38.5742904517  TIP3      2144            0.0000000000
     31333      2345  TIP3      OH2            24.8903615023        9.0245471406       22.7510827811  TIP3      2145            0.0000000000
     31334      2345  TIP3      H1             24.5760416255        8.2133235010       23.1826240745  TIP3      2145            0.0000000000
     31335      2345  TIP3      H2             25.2525769603        8.6274366705       21.9418183841  TIP3      2145            0.0000000000
     31336      2346  TIP3      OH2            24.0719563232        6.8323249802       34.2900045164  TIP3      2146            0.0000000000
     31337      2346  TIP3      H1             23.4836233519        7.6102890706       34.3147026484  TIP3      2146            0.0000000000
     31338      2346  TIP3      H2             24.8592128818        7.2808178225       33.9066798711  TIP3      2146            0.0000000000
     31339      2347  TIP3      OH2            26.3897187506        7.1425536753       20.4908120483  TIP3      2147            0.0000000000
     31340      2347  TIP3      H1             25.7341236345        7.2480915351       19.7833391661  TIP3      2147            0.0000000000
     31341      2347  TIP3      H2             27.1197805450        6.7766664161       19.9613551969  TIP3      2147            0.0000000000
     31342      2348  TIP3      OH2            29.5240301105        9.5335059913       38.1261140475  TIP3      2148            0.0000000000
     31343      2348  TIP3      H1             30.1295106587        9.1384854951       37.4817915232  TIP3      2148            0.0000000000
     31344      2348  TIP3      H2             29.3297207894        8.7721416463       38.7168287675  TIP3      2148            0.0000000000
     31345      2349  TIP3      OH2            24.9492211465        4.4225125376       35.4885486291  TIP3      2149            0.0000000000
     31346      2349  TIP3      H1             25.0050198218        3.7025105735       34.8104714212  TIP3      2149            0.0000000000
     31347      2349  TIP3      H2             24.5812929175        5.1699607091       34.9663074157  TIP3      2149            0.0000000000
     31348      2350  TIP3      OH2            25.1853662164        2.4666093722       33.5775785681  TIP3      2150            0.0000000000
     31349      2350  TIP3      H1             25.7078298661        2.9526492168       32.8900806965  TIP3      2150            0.0000000000
     31350      2350  TIP3      H2             24.2781448112        2.4824197498       33.1973973804  TIP3      2150            0.0000000000
     31351      2351  TIP3      OH2            26.4234529629        8.3334843610       33.5523770979  TIP3      2151            0.0000000000
     31352      2351  TIP3      H1             27.2672675410        8.6277152343       33.1817233410  TIP3      2151            0.0000000000
     31353      2351  TIP3      H2             25.8195944279        8.9364440302       33.0737767418  TIP3      2151            0.0000000000
     31354      2352  TIP3      OH2            31.5020618600        5.5236868881       38.4743279596  TIP3      2152            0.0000000000
     31355      2352  TIP3      H1             32.0521514035        4.7940298217       38.1526200945  TIP3      2152            0.0000000000
     31356      2352  TIP3      H2             32.1400511604        6.2420596018       38.3345214786  TIP3      2152            0.0000000000
     31357      2353  TIP3      OH2            32.2525215394        8.8101720969       37.2195171966  TIP3      2153            0.0000000000
     31358      2353  TIP3      H1             31.9868428145        9.3174334568       36.4223048442  TIP3      2153            0.0000000000
     31359      2353  TIP3      H2             33.1573463711        8.5536845056       36.9541298187  TIP3      2153            0.0000000000
     31360      2354  TIP3      OH2            23.2952777244        5.2119993134       37.6785471468  TIP3      2154            0.0000000000
     31361      2354  TIP3      H1             22.4453580930        4.7580760380       37.4813297970  TIP3      2154            0.0000000000
     31362      2354  TIP3      H2             23.8651006476        4.8713782291       36.9529359657  TIP3      2154            0.0000000000
     31363      2355  TIP3      OH2            26.1724090532       -0.0135100603       33.6500743335  TIP3      2155            0.0000000000
     31364      2355  TIP3      H1             25.9089950874        0.9296668539       33.7138421271  TIP3      2155            0.0000000000
     31365      2355  TIP3      H2             25.3507843500       -0.4133737588       33.3259383420  TIP3      2155            0.0000000000
     31366      2356  TIP3      OH2            27.0920880690        4.2390224912       37.6639227924  TIP3      2156            0.0000000000
     31367      2356  TIP3      H1             26.4784765236        3.9706658331       38.3688625699  TIP3      2156            0.0000000000
     31368      2356  TIP3      H2             26.5104798028        4.1433742313       36.8917484077  TIP3      2156            0.0000000000
     31369      2357  TIP3      OH2            29.9686414419        3.3405853413       36.6782120082  TIP3      2157            0.0000000000
     31370      2357  TIP3      H1             29.0513475705        3.4962438004       36.9453080967  TIP3      2157            0.0000000000
     31371      2357  TIP3      H2             30.3243677967        2.9239787508       37.4968989419  TIP3      2157            0.0000000000
     31372      2358  TIP3      OH2            31.6290815862        2.2611627193       38.4968887670  TIP3      2158            0.0000000000
     31373      2358  TIP3      H1             31.4849618508        1.2871815063       38.5721905779  TIP3      2158            0.0000000000
     31374      2358  TIP3      H2             31.3664549551        2.5984881220       39.3796842986  TIP3      2158            0.0000000000
     31375      2359  TIP3      OH2            21.1994004682        3.3984352601       37.6641169223  TIP3      2159            0.0000000000
     31376      2359  TIP3      H1             21.1666306996        2.5537889190       37.1608012667  TIP3      2159            0.0000000000
     31377      2359  TIP3      H2             20.9761372469        3.0953306760       38.5758262031  TIP3      2159            0.0000000000
     31378      2360  TIP3      OH2            25.7859609148       -0.3092602462       36.4662416456  TIP3      2160            0.0000000000
     31379      2360  TIP3      H1             26.4861652425       -0.9750595498       36.6049016404  TIP3      2160            0.0000000000
     31380      2360  TIP3      H2             25.8185839746       -0.2626817163       35.4881563762  TIP3      2160            0.0000000000
     31381      2361  TIP3      OH2            26.1871163283        0.9181810942       38.9728937488  TIP3      2161            0.0000000000
     31382      2361  TIP3      H1             26.0203770790        0.5469031879       38.0821435071  TIP3      2161            0.0000000000
     31383      2361  TIP3      H2             25.7082074225        1.7763201787       38.8923061086  TIP3      2161            0.0000000000
     31384      2362  TIP3      OH2            26.1377717435       17.6077626330       22.3583914995  TIP3      2162            0.0000000000
     31385      2362  TIP3      H1             27.1140945171       17.6720386726       22.2241969705  TIP3      2162            0.0000000000
     31386      2362  TIP3      H2             25.8724692992       18.4725280479       22.0277079601  TIP3      2162            0.0000000000
     31387      2363  TIP3      OH2            18.0186988602       17.6862181529       26.1881329446  TIP3      2163            0.0000000000
     31388      2363  TIP3      H1             17.6316078192       16.8776742193       25.8412707617  TIP3      2163            0.0000000000
     31389      2363  TIP3      H2             18.5410087135       17.3097085879       26.9223486239  TIP3      2163            0.0000000000
     31390      2364  TIP3      OH2            19.1013211559       16.0762196353       28.1055767320  TIP3      2164            0.0000000000
     31391      2364  TIP3      H1             18.4007199393       15.5670900335       28.5481062872  TIP3      2164            0.0000000000
     31392      2364  TIP3      H2             19.7712591983       16.1275166981       28.8159656453  TIP3      2164            0.0000000000
     31393      2365  TIP3      OH2            36.8987589347       16.4542518116       31.3569861102  TIP3      2165            0.0000000000
     31394      2365  TIP3      H1             36.8520415992       16.8431079613       32.2537167730  TIP3      2165            0.0000000000
     31395      2365  TIP3      H2             37.0630358042       17.2471114039       30.8254575351  TIP3      2165            0.0000000000
     31396      2366  TIP3      OH2            36.2400822092       16.1622373327       34.1679001848  TIP3      2166            0.0000000000
     31397      2366  TIP3      H1             35.8242176195       15.5049625885       33.5650907778  TIP3      2166            0.0000000000
     31398      2366  TIP3      H2             36.5336186230       15.5627260559       34.8819899707  TIP3      2166            0.0000000000
     31399      2367  TIP3      OH2            34.6904844916       11.9631828973       38.9435212434  TIP3      2167            0.0000000000
     31400      2367  TIP3      H1             33.7905300161       12.1013877860       39.3145029844  TIP3      2167            0.0000000000
     31401      2367  TIP3      H2             35.0235701122       12.8759493541       38.9028211107  TIP3      2167            0.0000000000
     31402      2368  TIP3      OH2            36.0615102192       10.2782127637       23.9192652580  TIP3      2168            0.0000000000
     31403      2368  TIP3      H1             36.8328589229       10.8457656649       24.0652122142  TIP3      2168            0.0000000000
     31404      2368  TIP3      H2             36.0774483111        9.7544411073       24.7418000153  TIP3      2168            0.0000000000
     31405      2369  TIP3      OH2            36.5474415035        8.5154482672       25.9550837391  TIP3      2169            0.0000000000
     31406      2369  TIP3      H1             35.5993886899        8.2861310084       25.9155497798  TIP3      2169            0.0000000000
     31407      2369  TIP3      H2             36.6530332892        8.5193895118       26.9126243118  TIP3      2169            0.0000000000
     31408      2370  TIP3      OH2            36.5778364194       11.0599086004       31.0337788093  TIP3      2170            0.0000000000
     31409      2370  TIP3      H1             37.4509855129       10.9342834853       30.6262303620  TIP3      2170            0.0000000000
     31410      2370  TIP3      H2             36.5249610755       12.0431810451       30.9153254792  TIP3      2170            0.0000000000
     31411      2371  TIP3      OH2            34.6749025182       14.1233120405       33.2990442620  TIP3      2171            0.0000000000
     31412      2371  TIP3      H1             33.8953133861       14.5711160828       33.6734103632  TIP3      2171            0.0000000000
     31413      2371  TIP3      H2             34.4010716359       13.9806607057       32.3724587474  TIP3      2171            0.0000000000
     31414      2372  TIP3      OH2            36.4913828853        7.8701657454       22.3426544842  TIP3      2172            0.0000000000
     31415      2372  TIP3      H1             37.1683193423        8.2388085503       21.7437969725  TIP3      2172            0.0000000000
     31416      2372  TIP3      H2             36.1471713714        8.6713413148       22.7806091442  TIP3      2172            0.0000000000
     31417      2373  TIP3      OH2            34.2511548965        7.1860592429       26.8417178479  TIP3      2173            0.0000000000
     31418      2373  TIP3      H1             34.2922535709        6.2221027940       26.9162020903  TIP3      2173            0.0000000000
     31419      2373  TIP3      H2             33.7744580592        7.4065053769       27.6728337903  TIP3      2173            0.0000000000
     31420      2374  TIP3      OH2            19.0110883283        9.1881061965       30.5226547983  TIP3      2174            0.0000000000
     31421      2374  TIP3      H1             19.0343568027        8.8928465746       29.5855750979  TIP3      2174            0.0000000000
     31422      2374  TIP3      H2             19.9163664726        8.9096060605       30.8079858499  TIP3      2174            0.0000000000
     31423      2375  TIP3      OH2            35.0445844691        8.9631882802       36.2928613324  TIP3      2175            0.0000000000
     31424      2375  TIP3      H1             35.8208792090        8.3929993611       36.1135800082  TIP3      2175            0.0000000000
     31425      2375  TIP3      H2             35.4418191048        9.8497393999       36.1808449935  TIP3      2175            0.0000000000
     31426      2376  TIP3      OH2            36.5129420108        6.7500110474       36.4930448795  TIP3      2176            0.0000000000
     31427      2376  TIP3      H1             35.5389027201        6.7414343787       36.6161135073  TIP3      2176            0.0000000000
     31428      2376  TIP3      H2             36.7196407662        5.8124831808       36.7098849631  TIP3      2176            0.0000000000
     31429      2377  TIP3      OH2            33.8523899377        4.5578690237       25.3551002068  TIP3      2177            0.0000000000
     31430      2377  TIP3      H1             33.9983709395        3.5873744652       25.2709810228  TIP3      2177            0.0000000000
     31431      2377  TIP3      H2             34.7592485835        4.8896542641       25.4181470563  TIP3      2177            0.0000000000
     31432      2378  TIP3      OH2            34.2245645708        5.4753278058       30.5928748001  TIP3      2178            0.0000000000
     31433      2378  TIP3      H1             35.1775545826        5.3192270579       30.3954727840  TIP3      2178            0.0000000000
     31434      2378  TIP3      H2             34.2130780584        5.2970900570       31.5431526376  TIP3      2178            0.0000000000
     31435      2379  TIP3      OH2            34.5456253137        5.8706782447       33.5202160847  TIP3      2179            0.0000000000
     31436      2379  TIP3      H1             33.6537721838        6.2274958218       33.7019441749  TIP3      2179            0.0000000000
     31437      2379  TIP3      H2             34.9918429027        6.6897017745       33.2084538638  TIP3      2179            0.0000000000
     31438      2380  TIP3      OH2            19.0386362079        4.3992941060       36.4945645881  TIP3      2180            0.0000000000
     31439      2380  TIP3      H1             19.8822578995        4.2676242625       36.9644555692  TIP3      2180            0.0000000000
     31440      2380  TIP3      H2             18.5246214175        3.6205287895       36.8111596106  TIP3      2180            0.0000000000
     31441      2381  TIP3      OH2            36.6810550779       -0.4637150221       38.4410347108  TIP3      2181            0.0000000000
     31442      2381  TIP3      H1             37.0633372884       -0.9769702487       37.7198019169  TIP3      2181            0.0000000000
     31443      2381  TIP3      H2             36.5847091085        0.4099962559       37.9972291841  TIP3      2181            0.0000000000
     31444      2382  TIP3      OH2            34.2336731812        1.9425576485       25.0028630556  TIP3      2182            0.0000000000
     31445      2382  TIP3      H1             34.4322717878        1.4129196692       25.8116303694  TIP3      2182            0.0000000000
     31446      2382  TIP3      H2             34.1772449760        1.2313151396       24.3273046670  TIP3      2182            0.0000000000
     31447      2383  TIP3      OH2            20.1316221749        2.6667307970       29.9764692451  TIP3      2183            0.0000000000
     31448      2383  TIP3      H1             20.6500348747        1.8267700470       29.8935539994  TIP3      2183            0.0000000000
     31449      2383  TIP3      H2             20.8681813790        3.2901350257       30.1206718409  TIP3      2183            0.0000000000
     31450      2384  TIP3      OH2            18.5377337049        5.8236866015       30.6880337254  TIP3      2184            0.0000000000
     31451      2384  TIP3      H1             19.3199088224        5.5563848357       30.1808208508  TIP3      2184            0.0000000000
     31452      2384  TIP3      H2             18.8960440752        6.5870856713       31.1564824452  TIP3      2184            0.0000000000
     31453      2385  TIP3      OH2            36.0770525717        1.8156631343       37.2591917145  TIP3      2185            0.0000000000
     31454      2385  TIP3      H1             35.3023766432        2.3718230785       37.5303081912  TIP3      2185            0.0000000000
     31455      2385  TIP3      H2             35.8528925622        1.6147809337       36.3357256125  TIP3      2185            0.0000000000
     31456      2386  TIP3      OH2            18.7402418094        2.3251450772       24.9336141786  TIP3      2186            0.0000000000
     31457      2386  TIP3      H1             17.8303280485        2.3022105250       24.6211294196  TIP3      2186            0.0000000000
     31458      2386  TIP3      H2             19.1815876900        2.6672582726       24.1332305948  TIP3      2186            0.0000000000
     31459      2387  TIP3      OH2            18.8100808698        0.4045622604       33.0398952262  TIP3      2187            0.0000000000
     31460      2387  TIP3      H1             18.1560216058        0.3291207567       33.7714321201  TIP3      2187            0.0000000000
     31461      2387  TIP3      H2             18.4096907132        1.0000892103       32.3955259111  TIP3      2187            0.0000000000
     31462      2388  TIP3      OH2            21.0004202787       13.7780149704       37.0667467752  TIP3      2188            0.0000000000
     31463      2388  TIP3      H1             20.1709073203       13.9439066271       36.6041936110  TIP3      2188            0.0000000000
     31464      2388  TIP3      H2             20.6863436335       13.5218828245       37.9358717732  TIP3      2188            0.0000000000
     31465      2389  TIP3      OH2            23.7514939516       14.9582751160       33.2473395240  TIP3      2189            0.0000000000
     31466      2389  TIP3      H1             23.7511244452       15.9403051332       33.2055912692  TIP3      2189            0.0000000000
     31467      2389  TIP3      H2             24.7105726203       14.8238798999       33.3949584582  TIP3      2189            0.0000000000
     31468      2390  TIP3      OH2            27.9312268988       16.5307458078       36.4263991974  TIP3      2190            0.0000000000
     31469      2390  TIP3      H1             28.0615468713       16.2796686099       37.3614049672  TIP3      2190            0.0000000000
     31470      2390  TIP3      H2             28.8435445142       16.8121395616       36.1748701090  TIP3      2190            0.0000000000
     31471      2391  TIP3      OH2            30.2010935360       17.8581164522       35.9137942340  TIP3      2191            0.0000000000
     31472      2391  TIP3      H1             30.9875160930       17.4323162812       35.5524542422  TIP3      2191            0.0000000000
     31473      2391  TIP3      H2             30.5187617479       18.2002366426       36.7844492056  TIP3      2191            0.0000000000
     31474      2392  TIP3      OH2            35.1702626127        0.0800005024       35.0282305641  TIP3      2192            0.0000000000
     31475      2392  TIP3      H1             34.4035026537        0.4860077698       34.5899380249  TIP3      2192            0.0000000000
     31476      2392  TIP3      H2             35.2050432257       -0.8063045028       34.6304552306  TIP3      2192            0.0000000000
     31477      2393  TIP3      OH2            21.1536336181       18.1644834749       33.3665817042  TIP3      2193            0.0000000000
     31478      2393  TIP3      H1             20.3364796612       18.6159092192       33.0525157141  TIP3      2193            0.0000000000
     31479      2393  TIP3      H2             21.0504009030       18.3330470308       34.3190366634  TIP3      2193            0.0000000000
     31480      2394  TIP3      OH2            23.5659763514       17.6478793241       32.4846714191  TIP3      2194            0.0000000000
     31481      2394  TIP3      H1             22.6316843687       17.8387040642       32.7572035797  TIP3      2194            0.0000000000
     31482      2394  TIP3      H2             23.6861096761       18.3209551633       31.7907297899  TIP3      2194            0.0000000000
     31483      2395  TIP3      OH2            28.2864560167       17.3650932643       31.6833409031  TIP3      2195            0.0000000000
     31484      2395  TIP3      H1             27.5190533130       17.8013517497       31.2860836269  TIP3      2195            0.0000000000
     31485      2395  TIP3      H2             28.4726869954       17.9854002717       32.4244016631  TIP3      2195            0.0000000000
     31486      2396  TIP3      OH2            30.3121411865       15.9638303897       33.1564310895  TIP3      2196            0.0000000000
     31487      2396  TIP3      H1             29.6169483644       16.3185394011       32.5695058900  TIP3      2196            0.0000000000
     31488      2396  TIP3      H2             30.9718569663       16.6701705171       33.1093340902  TIP3      2196            0.0000000000
     31489      2397  TIP3      OH2            32.9955804321       17.4842397562       32.8527393926  TIP3      2197            0.0000000000
     31490      2397  TIP3      H1             32.9838991178       18.4191635414       32.6243081537  TIP3      2197            0.0000000000
     31491      2397  TIP3      H2             33.4360919661       17.0912911917       32.0628610703  TIP3      2197            0.0000000000
     31492      2398  TIP3      OH2            20.7635291996       16.5609271094       30.3666956869  TIP3      2198            0.0000000000
     31493      2398  TIP3      H1             20.6887473841       15.9910843359       31.1663161370  TIP3      2198            0.0000000000
     31494      2398  TIP3      H2             21.6434085115       16.2606857435       30.0326766408  TIP3      2198            0.0000000000
     31495      2399  TIP3      OH2            22.8898636419       15.5833068899       29.1168474646  TIP3      2199            0.0000000000
     31496      2399  TIP3      H1             22.7501186603       14.6395846705       29.3549619659  TIP3      2199            0.0000000000
     31497      2399  TIP3      H2             23.8358952660       15.7205415029       29.3543220675  TIP3      2199            0.0000000000
     31498      2400  TIP3      OH2            25.3154817095       15.7405772956       30.1840655413  TIP3      2200            0.0000000000
     31499      2400  TIP3      H1             25.4562624200       14.7780851800       30.3119122759  TIP3      2200            0.0000000000
     31500      2400  TIP3      H2             25.2968501835       16.0714031550       31.0972332808  TIP3      2200            0.0000000000
     31501      2401  TIP3      OH2            29.2619056344        1.6657712770       29.2901955495  TIP3      2201            0.0000000000
     31502      2401  TIP3      H1             28.5287051439        1.0821849580       29.5049914631  TIP3      2201            0.0000000000
     31503      2401  TIP3      H2             29.1971753141        1.6840051141       28.3148143951  TIP3      2201            0.0000000000
     31504      2402  TIP3      OH2            33.7641134300       -0.5633715856       29.1410846906  TIP3      2202            0.0000000000
     31505      2402  TIP3      H1             34.1090804418        0.0971334942       28.4964957000  TIP3      2202            0.0000000000
     31506      2402  TIP3      H2             32.8170497804       -0.5031751790       28.8675506600  TIP3      2202            0.0000000000
     31507      2403  TIP3      OH2            35.0185809353        0.8909454152       27.2841538918  TIP3      2203            0.0000000000
     31508      2403  TIP3      H1             35.7443461606        0.2356399416       27.1628218988  TIP3      2203            0.0000000000
     31509      2403  TIP3      H2             35.5483533586        1.6229287618       27.6749796477  TIP3      2203            0.0000000000
     31510      2404  TIP3      OH2            21.1852888547       -0.0682144355       27.2563650781  TIP3      2204            0.0000000000
     31511      2404  TIP3      H1             20.2698023378       -0.2080215810       26.9760499130  TIP3      2204            0.0000000000
     31512      2404  TIP3      H2             21.6048138368       -0.9213089083       26.9879263192  TIP3      2204            0.0000000000
     31513      2405  TIP3      OH2            20.1321792319        0.1703809606       22.4959944807  TIP3      2205            0.0000000000
     31514      2405  TIP3      H1             20.8485142931        0.7714513665       22.1847234017  TIP3      2205            0.0000000000
     31515      2405  TIP3      H2             19.5394260933        0.8294635536       22.8859274207  TIP3      2205            0.0000000000
     31516      2406  TIP3      OH2            25.3523091261        0.0269717238       27.0930550665  TIP3      2206            0.0000000000
     31517      2406  TIP3      H1             25.8436709995        0.5068899910       26.4046386606  TIP3      2206            0.0000000000
     31518      2406  TIP3      H2             25.8062846555        0.3513494419       27.8905268744  TIP3      2206            0.0000000000
     31519      2407  TIP3      OH2            31.3891442050        0.0879692022       28.1787516577  TIP3      2207            0.0000000000
     31520      2407  TIP3      H1             31.1189409144        0.1034386643       27.2554907470  TIP3      2207            0.0000000000
     31521      2407  TIP3      H2             30.6672152157       -0.4645169945       28.5537286866  TIP3      2207            0.0000000000
     31522      2408  TIP3      OH2            19.8667497774       16.2878443481       23.6154822892  TIP3      2208            0.0000000000
     31523      2408  TIP3      H1             19.6686601740       15.8407612506       22.7854810512  TIP3      2208            0.0000000000
     31524      2408  TIP3      H2             20.0388181699       17.2129737822       23.3270158442  TIP3      2208            0.0000000000
     31525      2409  TIP3      OH2            26.4934386085        1.6603079003       25.0388202618  TIP3      2209            0.0000000000
     31526      2409  TIP3      H1             26.3671371582        1.3872826095       24.1092211595  TIP3      2209            0.0000000000
     31527      2409  TIP3      H2             26.4220851873        2.6220986879       24.9378221732  TIP3      2209            0.0000000000
     31528      2410  TIP3      OH2            28.7098423933       17.5906472042       21.6167898767  TIP3      2210            0.0000000000
     31529      2410  TIP3      H1             29.6242576512       17.4907250268       21.8853257981  TIP3      2210            0.0000000000
     31530      2410  TIP3      H2             28.6122545456       16.8347564251       20.9900381884  TIP3      2210            0.0000000000
     31531      2411  TIP3      OH2            20.8590196111        0.8138465107       36.4779909748  TIP3      2211            0.0000000000
     31532      2411  TIP3      H1             20.3145057133        0.0134679391       36.5454630842  TIP3      2211            0.0000000000
     31533      2411  TIP3      H2             21.6365975022        0.5830756108       37.0338407430  TIP3      2211            0.0000000000
     31534      2412  TIP3      OH2            22.7924424032        0.1101082947       38.3198487287  TIP3      2212            0.0000000000
     31535      2412  TIP3      H1             23.7212318363       -0.1037844952       38.0802055038  TIP3      2212            0.0000000000
     31536      2412  TIP3      H2             22.4934739466       -0.7876380574       38.5873225480  TIP3      2212            0.0000000000
     31537      2413  TIP3      OH2            31.5158170004       -0.5248246468       38.4660512087  TIP3      2213            0.0000000000
     31538      2413  TIP3      H1             31.4820778445       -1.0665766651       39.2940946452  TIP3      2213            0.0000000000
     31539      2413  TIP3      H2             32.3560097898       -0.8691196849       38.0919737748  TIP3      2213            0.0000000000
     31540      2414  TIP3      OH2            34.4454856552       14.9474193721       36.6603608372  TIP3      2214            0.0000000000
     31541      2414  TIP3      H1             33.8795590743       15.1173124263       35.8694785455  TIP3      2214            0.0000000000
     31542      2414  TIP3      H2             34.5859688598       15.8532881376       36.9829362181  TIP3      2214            0.0000000000
     31543      2415  TIP3      OH2            37.0406300194        5.9719796857       25.1077553446  TIP3      2215            0.0000000000
     31544      2415  TIP3      H1             36.9494206917        6.7819832925       25.6389044527  TIP3      2215            0.0000000000
     31545      2415  TIP3      H2             36.9852815011        6.3581369568       24.2195711672  TIP3      2215            0.0000000000
     31546      2416  TIP3      OH2            37.4972010662       10.6048841047       33.5287575828  TIP3      2216            0.0000000000
     31547      2416  TIP3      H1             37.0107832480       10.5201918633       32.6751103425  TIP3      2216            0.0000000000
     31548      2416  TIP3      H2             37.5657325434        9.6847759115       33.8642500123  TIP3      2216            0.0000000000
     31549      2417  TIP3      OH2            37.1007502934       13.5708240090       30.3828029762  TIP3      2217            0.0000000000
     31550      2417  TIP3      H1             38.0594001607       13.6284480917       30.1337506874  TIP3      2217            0.0000000000
     31551      2417  TIP3      H2             36.9687382494       14.4550296808       30.7647766401  TIP3      2217            0.0000000000
     31552      2418  TIP3      OH2            36.7918058000        2.9394939048       27.5445419852  TIP3      2218            0.0000000000
     31553      2418  TIP3      H1             37.7463402996        3.1738381698       27.6213787562  TIP3      2218            0.0000000000
     31554      2418  TIP3      H2             36.6540122910        3.0670124168       26.5980443801  TIP3      2218            0.0000000000
     31555      2419  TIP3      OH2            37.5783934574        8.1393612088       34.5642852651  TIP3      2219            0.0000000000
     31556      2419  TIP3      H1             37.4154882196        7.5386159329       35.3270646459  TIP3      2219            0.0000000000
     31557      2419  TIP3      H2             36.7742129831        7.9507918015       34.0405517920  TIP3      2219            0.0000000000
     31558      2420  TIP3      OH2            38.0877053652       10.0152524158       37.5928206150  TIP3      2220            0.0000000000
     31559      2420  TIP3      H1             37.5321466000        9.3122530009       37.9706983005  TIP3      2220            0.0000000000
     31560      2420  TIP3      H2             37.4408823196       10.5185580153       37.0481323108  TIP3      2220            0.0000000000
     31561      2421  TIP3      OH2            36.5338818136       17.8533346699       26.6477294136  TIP3      2221            0.0000000000
     31562      2421  TIP3      H1             35.7315150984       17.6428222454       26.0965238796  TIP3      2221            0.0000000000
     31563      2421  TIP3      H2             36.6449352671       16.9913706906       27.1205205010  TIP3      2221            0.0000000000
     31564      2422  TIP3      OH2            37.0363239072       15.6650983835       28.0987915965  TIP3      2222            0.0000000000
     31565      2422  TIP3      H1             37.0859022115       14.7199850901       28.2817005440  TIP3      2222            0.0000000000
     31566      2422  TIP3      H2             37.9369192189       15.9571535345       28.3752271409  TIP3      2222            0.0000000000
     31567      2423  TIP3      OH2            37.8854425653        8.3356904532       30.8728850588  TIP3      2223            0.0000000000
     31568      2423  TIP3      H1             37.6380470063        8.6778133096       30.0063860406  TIP3      2223            0.0000000000
     31569      2423  TIP3      H2             38.6543185959        8.9176688837       31.0593018698  TIP3      2223            0.0000000000
     31570      2424  TIP3      OH2            37.0943019513        4.2274601854       36.9566749643  TIP3      2224            0.0000000000
     31571      2424  TIP3      H1             38.0639044272        4.2577008663       36.8038164531  TIP3      2224            0.0000000000
     31572      2424  TIP3      H2             36.9549176733        3.2796820411       37.1535782680  TIP3      2224            0.0000000000
     31573      2425  TIP3      OH2            36.8257213588        5.4217558989       30.6264324849  TIP3      2225            0.0000000000
     31574      2425  TIP3      H1             37.7830779021        5.3003273426       30.4531050822  TIP3      2225            0.0000000000
     31575      2425  TIP3      H2             36.8467272896        6.3727368495       30.8234655174  TIP3      2225            0.0000000000
     31576      2426  TIP3      OH2            36.7831258967        2.2073658909       24.2555426584  TIP3      2226            0.0000000000
     31577      2426  TIP3      H1             35.8449496780        2.2285854896       24.5447392497  TIP3      2226            0.0000000000
     31578      2426  TIP3      H2             36.8767597714        1.3224768275       23.8756380270  TIP3      2226            0.0000000000
     31579      2427  TIP3      OH2            36.4201012453        0.2437731662       32.5990862557  TIP3      2227            0.0000000000
     31580      2427  TIP3      H1             36.2841401405        0.3680936838       33.5608055118  TIP3      2227            0.0000000000
     31581      2427  TIP3      H2             36.1171825915        1.1138260694       32.2466851170  TIP3      2227            0.0000000000
     31582      2428  TIP3      OH2           -26.2088515508       28.4365340977       26.5597757731  TIP3      2228            0.0000000000
     31583      2428  TIP3      H1            -26.2645318286       29.2327741050       26.0000652876  TIP3      2228            0.0000000000
     31584      2428  TIP3      H2            -26.9793794051       27.9548748447       26.2390457161  TIP3      2228            0.0000000000
     31585      2429  TIP3      OH2           -27.4286488311       27.0832460959       30.0420071955  TIP3      2229            0.0000000000
     31586      2429  TIP3      H1            -27.3325045582       26.6892671397       30.9455679985  TIP3      2229            0.0000000000
     31587      2429  TIP3      H2            -28.1015450333       26.4989429424       29.6451903245  TIP3      2229            0.0000000000
     31588      2430  TIP3      OH2           -35.0773523716       26.9043594475       31.6477042723  TIP3      2230            0.0000000000
     31589      2430  TIP3      H1            -35.1968177803       26.1453969744       32.2525173421  TIP3      2230            0.0000000000
     31590      2430  TIP3      H2            -34.3206432861       27.3325311903       32.0751821432  TIP3      2230            0.0000000000
     31591      2431  TIP3      OH2           -34.8081099606       31.5682179107       29.8138386712  TIP3      2231            0.0000000000
     31592      2431  TIP3      H1            -34.9434869292       30.6212094857       29.5868951396  TIP3      2231            0.0000000000
     31593      2431  TIP3      H2            -33.8605525383       31.5100431338       29.9670731552  TIP3      2231            0.0000000000
     31594      2432  TIP3      OH2           -36.7640844663       25.3226727650       25.5636579330  TIP3      2232            0.0000000000
     31595      2432  TIP3      H1            -37.5539682852       25.8392976319       25.7614962826  TIP3      2232            0.0000000000
     31596      2432  TIP3      H2            -37.0653352887       24.4471615099       25.8421565442  TIP3      2232            0.0000000000
     31597      2433  TIP3      OH2           -37.2152667351       27.1686513132       28.3913547457  TIP3      2233            0.0000000000
     31598      2433  TIP3      H1            -36.6362826297       26.3785670812       28.2437652129  TIP3      2233            0.0000000000
     31599      2433  TIP3      H2            -36.7376811888       27.8641207401       27.9150096043  TIP3      2233            0.0000000000
     31600      2434  TIP3      OH2           -29.2584671814       29.6670519339       31.0588337924  TIP3      2234            0.0000000000
     31601      2434  TIP3      H1            -28.8163268266       29.1479505184       30.3702566938  TIP3      2234            0.0000000000
     31602      2434  TIP3      H2            -28.4606373531       30.0106537254       31.5305325294  TIP3      2234            0.0000000000
     31603      2435  TIP3      OH2           -20.5029186049       21.1704862833       31.1853951276  TIP3      2235            0.0000000000
     31604      2435  TIP3      H1            -20.4295592099       21.8632706366       31.8654979091  TIP3      2235            0.0000000000
     31605      2435  TIP3      H2            -19.8000687795       21.4465397395       30.5686401128  TIP3      2235            0.0000000000
     31606      2436  TIP3      OH2           -25.4498297692       24.2952950710       31.1694256876  TIP3      2236            0.0000000000
     31607      2436  TIP3      H1            -25.4102616615       23.3493383455       31.3903675566  TIP3      2236            0.0000000000
     31608      2436  TIP3      H2            -25.5003053914       24.2254920276       30.1935621136  TIP3      2236            0.0000000000
     31609      2437  TIP3      OH2           -25.0342522324       22.4454482733       26.7552798719  TIP3      2237            0.0000000000
     31610      2437  TIP3      H1            -24.5133746605       22.2344922349       27.5643676604  TIP3      2237            0.0000000000
     31611      2437  TIP3      H2            -24.3837323333       22.9809144105       26.2659699029  TIP3      2237            0.0000000000
     31612      2438  TIP3      OH2           -35.8286570830       24.8935932686       28.4911668308  TIP3      2238            0.0000000000
     31613      2438  TIP3      H1            -35.3926525968       24.3667715034       29.1741523489  TIP3      2238            0.0000000000
     31614      2438  TIP3      H2            -36.4015815958       24.1898159405       28.0908830024  TIP3      2238            0.0000000000
     31615      2439  TIP3      OH2           -31.6154640479       26.5289048992       28.3175112730  TIP3      2239            0.0000000000
     31616      2439  TIP3      H1            -30.8269365181       26.2207004607       28.7832859765  TIP3      2239            0.0000000000
     31617      2439  TIP3      H2            -31.6502343558       25.9233312740       27.5548002541  TIP3      2239            0.0000000000
     31618      2440  TIP3      OH2           -20.4638281231       22.7813573157       33.5474208979  TIP3      2240            0.0000000000
     31619      2440  TIP3      H1            -20.9446095774       23.5327161390       33.1113112080  TIP3      2240            0.0000000000
     31620      2440  TIP3      H2            -20.2410713811       23.1936286521       34.3914001097  TIP3      2240            0.0000000000
     31621      2441  TIP3      OH2           -33.8267282659       21.1240914099       32.1820525386  TIP3      2241            0.0000000000
     31622      2441  TIP3      H1            -34.0229428767       21.8145734904       31.5298924914  TIP3      2241            0.0000000000
     31623      2441  TIP3      H2            -34.3011450916       21.4896040646       32.9547083514  TIP3      2241            0.0000000000
     31624      2442  TIP3      OH2           -31.3314598610       29.0298026236       32.5634017647  TIP3      2242            0.0000000000
     31625      2442  TIP3      H1            -31.9036780443       29.8109523581       32.7154657250  TIP3      2242            0.0000000000
     31626      2442  TIP3      H2            -30.6367469715       29.4186907285       31.9823469666  TIP3      2242            0.0000000000
     31627      2443  TIP3      OH2           -23.3137505348       22.3272465592       28.8208962032  TIP3      2243            0.0000000000
     31628      2443  TIP3      H1            -23.3278536599       21.4056195723       29.1160685736  TIP3      2243            0.0000000000
     31629      2443  TIP3      H2            -22.4448020770       22.6536939417       29.1268191301  TIP3      2243            0.0000000000
     31630      2444  TIP3      OH2           -34.2661410903       23.2403558355       30.2674287135  TIP3      2244            0.0000000000
     31631      2444  TIP3      H1            -33.7841182047       23.8985700089       30.8297977339  TIP3      2244            0.0000000000
     31632      2444  TIP3      H2            -33.5844561383       23.0602276801       29.6123158766  TIP3      2244            0.0000000000
     31633      2445  TIP3      OH2           -32.7250346957       31.2231741769       33.1868712798  TIP3      2245            0.0000000000
     31634      2445  TIP3      H1            -32.8509142615       32.1573627625       32.9259726959  TIP3      2245            0.0000000000
     31635      2445  TIP3      H2            -33.6068977006       31.0356164313       33.5553669122  TIP3      2245            0.0000000000
     31636      2446  TIP3      OH2           -37.5001908989       30.5653776146       23.7363095970  TIP3      2246            0.0000000000
     31637      2446  TIP3      H1            -37.2944026576       30.7916772803       22.8030304342  TIP3      2246            0.0000000000
     31638      2446  TIP3      H2            -37.0194014630       31.2613925376       24.2242772631  TIP3      2246            0.0000000000
     31639      2447  TIP3      OH2           -23.2837626964       32.5081355547       31.2854294251  TIP3      2247            0.0000000000
     31640      2447  TIP3      H1            -24.2180406260       32.6601277414       31.4623927373  TIP3      2247            0.0000000000
     31641      2447  TIP3      H2            -23.0398910404       33.2502899875       30.7134761345  TIP3      2247            0.0000000000
     31642      2448  TIP3      OH2           -23.3213048876       20.5281292834       32.0763754044  TIP3      2248            0.0000000000
     31643      2448  TIP3      H1            -24.0103221668       21.1233737638       31.7257709277  TIP3      2248            0.0000000000
     31644      2448  TIP3      H2            -22.5787057263       20.6560910204       31.4610974739  TIP3      2248            0.0000000000
     31645      2449  TIP3      OH2           -30.3933081179       18.7505479156       29.5293368796  TIP3      2249            0.0000000000
     31646      2449  TIP3      H1            -30.5888753272       17.8596325494       29.2035898766  TIP3      2249            0.0000000000
     31647      2449  TIP3      H2            -30.7588933443       18.7042189434       30.4191570421  TIP3      2249            0.0000000000
     31648      2450  TIP3      OH2           -22.1982450129       30.5514232046       34.6146642974  TIP3      2250            0.0000000000
     31649      2450  TIP3      H1            -22.1061900741       29.7880804530       33.9976334211  TIP3      2250            0.0000000000
     31650      2450  TIP3      H2            -21.9875811907       31.2775523390       33.9976885418  TIP3      2250            0.0000000000
     31651      2451  TIP3      OH2           -27.5240712059       27.5869584572       24.0697492846  TIP3      2251            0.0000000000
     31652      2451  TIP3      H1            -28.1108080785       28.3179349526       23.7602255415  TIP3      2251            0.0000000000
     31653      2451  TIP3      H2            -26.7733127518       27.5916425873       23.4256225365  TIP3      2251            0.0000000000
     31654      2452  TIP3      OH2           -20.1905929824       27.0432853776       32.5141713032  TIP3      2252            0.0000000000
     31655      2452  TIP3      H1            -20.8015045443       27.8067854198       32.5494355577  TIP3      2252            0.0000000000
     31656      2452  TIP3      H2            -19.5771218987       27.3810450311       31.8164084126  TIP3      2252            0.0000000000
     31657      2453  TIP3      OH2           -24.0127608976       27.5406918919       25.2014758524  TIP3      2253            0.0000000000
     31658      2453  TIP3      H1            -24.7431439671       27.9846644801       25.6905829189  TIP3      2253            0.0000000000
     31659      2453  TIP3      H2            -23.4198632733       27.2395250986       25.9118422732  TIP3      2253            0.0000000000
     31660      2454  TIP3      OH2           -24.1174417454       26.0563014726       34.2864259667  TIP3      2254            0.0000000000
     31661      2454  TIP3      H1            -24.4669415398       26.9050420634       34.5695321619  TIP3      2254            0.0000000000
     31662      2454  TIP3      H2            -24.6763210010       25.8971245637       33.5142434993  TIP3      2254            0.0000000000
     31663      2455  TIP3      OH2           -32.4460020436       28.7187084867       26.9797737911  TIP3      2255            0.0000000000
     31664      2455  TIP3      H1            -32.9931552270       28.2588856010       26.2968320548  TIP3      2255            0.0000000000
     31665      2455  TIP3      H2            -32.0904878313       27.9387970334       27.4583160420  TIP3      2255            0.0000000000
     31666      2456  TIP3      OH2           -31.1936434377       31.4741114647       29.8599379852  TIP3      2256            0.0000000000
     31667      2456  TIP3      H1            -30.9945213519       31.4976152970       28.9123051353  TIP3      2256            0.0000000000
     31668      2456  TIP3      H2            -30.4506668952       30.9696597215       30.2418615857  TIP3      2256            0.0000000000
     31669      2457  TIP3      OH2           -32.0975176861       26.9862919240       30.9992235136  TIP3      2257            0.0000000000
     31670      2457  TIP3      H1            -31.8578135351       27.2610948679       30.0969795536  TIP3      2257            0.0000000000
     31671      2457  TIP3      H2            -31.8362558421       27.7663217240       31.5299416346  TIP3      2257            0.0000000000
     31672      2458  TIP3      OH2           -31.3446234518       31.2991699265       35.5453422205  TIP3      2258            0.0000000000
     31673      2458  TIP3      H1            -32.0843800819       31.8090045509       35.9535847440  TIP3      2258            0.0000000000
     31674      2458  TIP3      H2            -31.6426941188       31.2588482860       34.6022709022  TIP3      2258            0.0000000000
     31675      2459  TIP3      OH2           -25.2063543766       27.0099769444       22.9065717158  TIP3      2259            0.0000000000
     31676      2459  TIP3      H1            -24.9419052524       26.7468094950       23.8230850107  TIP3      2259            0.0000000000
     31677      2459  TIP3      H2            -24.6275242904       27.7748375229       22.8339794716  TIP3      2259            0.0000000000
     31678      2460  TIP3      OH2           -34.0197391597       27.6739076339       34.4452998051  TIP3      2260            0.0000000000
     31679      2460  TIP3      H1            -34.1344938618       28.3998835577       35.0882620966  TIP3      2260            0.0000000000
     31680      2460  TIP3      H2            -34.9126899581       27.2560851411       34.4947991712  TIP3      2260            0.0000000000
     31681      2461  TIP3      OH2           -33.1614932044       33.2976497595       36.3337699030  TIP3      2261            0.0000000000
     31682      2461  TIP3      H1            -33.2504508066       33.3809624244       35.3613501660  TIP3      2261            0.0000000000
     31683      2461  TIP3      H2            -34.1047875606       33.1837762555       36.5814782250  TIP3      2261            0.0000000000
     31684      2462  TIP3      OH2           -21.7397597781       18.6036909798       23.4483408458  TIP3      2262            0.0000000000
     31685      2462  TIP3      H1            -22.6682849504       18.8201333000       23.6686893021  TIP3      2262            0.0000000000
     31686      2462  TIP3      H2            -21.4642568599       19.3455362760       22.8681548082  TIP3      2262            0.0000000000
     31687      2463  TIP3      OH2           -33.7930035278       27.2074496894       25.1161854325  TIP3      2263            0.0000000000
     31688      2463  TIP3      H1            -34.3126395265       27.8645402533       24.6084983835  TIP3      2263            0.0000000000
     31689      2463  TIP3      H2            -34.1621886894       26.3857723830       24.7759246322  TIP3      2263            0.0000000000
     31690      2464  TIP3      OH2           -36.8294312137       29.5238476962       33.9043605922  TIP3      2264            0.0000000000
     31691      2464  TIP3      H1            -37.7876020201       29.4389879189       33.7222121406  TIP3      2264            0.0000000000
     31692      2464  TIP3      H2            -36.5099819430       28.6099642045       33.8049703937  TIP3      2264            0.0000000000
     31693      2465  TIP3      OH2           -37.1076463388       32.7855071942       29.8564425982  TIP3      2265            0.0000000000
     31694      2465  TIP3      H1            -36.3129296176       32.1940315416       29.8737448902  TIP3      2265            0.0000000000
     31695      2465  TIP3      H2            -37.0173388873       33.2061026686       30.7311954651  TIP3      2265            0.0000000000
     31696      2466  TIP3      OH2           -19.7873062960       33.1727471224       36.2295295214  TIP3      2266            0.0000000000
     31697      2466  TIP3      H1            -19.8948153236       32.2123625626       36.3412560098  TIP3      2266            0.0000000000
     31698      2466  TIP3      H2            -20.6945814435       33.4559163739       36.4954315311  TIP3      2266            0.0000000000
     31699      2467  TIP3      OH2           -28.8419886920       32.5381631407       34.7477124697  TIP3      2267            0.0000000000
     31700      2467  TIP3      H1            -28.7225013582       33.3107104864       35.3332658730  TIP3      2267            0.0000000000
     31701      2467  TIP3      H2            -29.6674020869       32.1265001202       35.0787168373  TIP3      2267            0.0000000000
     31702      2468  TIP3      OH2           -28.4191284323       37.3617578551       24.5645165034  TIP3      2268            0.0000000000
     31703      2468  TIP3      H1            -28.1576265600       36.7746731386       23.8512137272  TIP3      2268            0.0000000000
     31704      2468  TIP3      H2            -27.8727730860       38.1431080683       24.4015830546  TIP3      2268            0.0000000000
     31705      2469  TIP3      OH2           -34.4554919263       35.0169431005       26.5764811290  TIP3      2269            0.0000000000
     31706      2469  TIP3      H1            -34.2800056309       34.9464392926       27.5488966865  TIP3      2269            0.0000000000
     31707      2469  TIP3      H2            -35.3198475834       34.5688315320       26.5170913704  TIP3      2269            0.0000000000
     31708      2470  TIP3      OH2           -22.6417475134       24.5708062575       36.3890663818  TIP3      2270            0.0000000000
     31709      2470  TIP3      H1            -23.2260070837       24.9387360672       35.6904027057  TIP3      2270            0.0000000000
     31710      2470  TIP3      H2            -22.6893380960       23.6238412134       36.1691166855  TIP3      2270            0.0000000000
     31711      2471  TIP3      OH2           -35.2470285473       31.5018803628       34.3952082390  TIP3      2271            0.0000000000
     31712      2471  TIP3      H1            -35.3192817744       31.2671823415       35.3368548579  TIP3      2271            0.0000000000
     31713      2471  TIP3      H2            -35.9169382942       30.8526544428       34.0672151196  TIP3      2271            0.0000000000
     31714      2472  TIP3      OH2           -27.7895377450       19.1049876623       33.6387857442  TIP3      2272            0.0000000000
     31715      2472  TIP3      H1            -27.4196841137       18.6178474587       34.4059063602  TIP3      2272            0.0000000000
     31716      2472  TIP3      H2            -28.7562181225       19.0821958832       33.8125900066  TIP3      2272            0.0000000000
     31717      2473  TIP3      OH2           -24.9543575555       23.2429870476       35.0747961935  TIP3      2273            0.0000000000
     31718      2473  TIP3      H1            -25.5095706966       22.6781380045       35.6840257361  TIP3      2273            0.0000000000
     31719      2473  TIP3      H2            -25.4696976836       24.0662176664       35.0993702041  TIP3      2273            0.0000000000
     31720      2474  TIP3      OH2           -32.4836176899       24.4838126709       31.7068215914  TIP3      2274            0.0000000000
     31721      2474  TIP3      H1            -33.2156032003       24.6004447752       32.3479781202  TIP3      2274            0.0000000000
     31722      2474  TIP3      H2            -32.2879885293       25.4231497244       31.4929350932  TIP3      2274            0.0000000000
     31723      2475  TIP3      OH2           -27.2998561909       25.3879347411       25.5819296832  TIP3      2275            0.0000000000
     31724      2475  TIP3      H1            -27.3405642532       26.2106755479       25.0429292026  TIP3      2275            0.0000000000
     31725      2475  TIP3      H2            -26.4738120110       24.9878562134       25.2231999989  TIP3      2275            0.0000000000
     31726      2476  TIP3      OH2           -28.1148019970       25.2873343306       36.9161041478  TIP3      2276            0.0000000000
     31727      2476  TIP3      H1            -28.5111576105       24.4520823189       37.2539586985  TIP3      2276            0.0000000000
     31728      2476  TIP3      H2            -27.3320870018       25.3686220483       37.4825535811  TIP3      2276            0.0000000000
     31729      2477  TIP3      OH2           -25.8113551281       24.6959789232       28.4143999024  TIP3      2277            0.0000000000
     31730      2477  TIP3      H1            -26.0500693947       25.5128058223       27.9490697487  TIP3      2277            0.0000000000
     31731      2477  TIP3      H2            -25.6473434425       24.0987439489       27.6598996650  TIP3      2277            0.0000000000
     31732      2478  TIP3      OH2           -34.7759653208       24.5122938439       33.0762799189  TIP3      2278            0.0000000000
     31733      2478  TIP3      H1            -34.4080298916       25.0116649146       33.8186236935  TIP3      2278            0.0000000000
     31734      2478  TIP3      H2            -35.1961765400       23.7406148542       33.5159676104  TIP3      2278            0.0000000000
     31735      2479  TIP3      OH2           -37.1658656635       22.8387313190       27.7489168675  TIP3      2279            0.0000000000
     31736      2479  TIP3      H1            -36.8490995839       22.0720371131       28.2814656860  TIP3      2279            0.0000000000
     31737      2479  TIP3      H2            -37.1202401416       22.4876475646       26.8275838734  TIP3      2279            0.0000000000
     31738      2480  TIP3      OH2           -37.4157763493       23.5692604642       22.6029073914  TIP3      2280            0.0000000000
     31739      2480  TIP3      H1            -36.5740100433       23.8467609437       22.2161490189  TIP3      2280            0.0000000000
     31740      2480  TIP3      H2            -37.1640574953       23.2714764136       23.4914539107  TIP3      2280            0.0000000000
     31741      2481  TIP3      OH2           -26.9392618657       26.0581363295       32.5341350586  TIP3      2281            0.0000000000
     31742      2481  TIP3      H1            -26.2957759612       25.4346245500       32.1343172590  TIP3      2281            0.0000000000
     31743      2481  TIP3      H2            -27.4163580401       25.4979870146       33.1917467508  TIP3      2281            0.0000000000
     31744      2482  TIP3      OH2           -31.8775396335       23.9800468387       24.6072140531  TIP3      2282            0.0000000000
     31745      2482  TIP3      H1            -30.9894630659       23.7058584311       24.3355763165  TIP3      2282            0.0000000000
     31746      2482  TIP3      H2            -32.2656248418       24.2259655057       23.7436238415  TIP3      2282            0.0000000000
     31747      2483  TIP3      OH2           -25.6308873975       21.4803679594       30.7786962623  TIP3      2283            0.0000000000
     31748      2483  TIP3      H1            -26.3232032930       21.1959968728       31.3974773880  TIP3      2283            0.0000000000
     31749      2483  TIP3      H2            -25.8552514438       20.9490069433       29.9886860708  TIP3      2283            0.0000000000
     31750      2484  TIP3      OH2           -32.3429595668       24.5085093934       21.9013961354  TIP3      2284            0.0000000000
     31751      2484  TIP3      H1            -33.1900441595       24.6831320975       21.4787026916  TIP3      2284            0.0000000000
     31752      2484  TIP3      H2            -31.7313921462       25.0306386184       21.3483501820  TIP3      2284            0.0000000000
     31753      2485  TIP3      OH2           -22.9441890557       37.0858616151       37.2137212623  TIP3      2285            0.0000000000
     31754      2485  TIP3      H1            -22.7323224907       37.3290165644       36.2968100316  TIP3      2285            0.0000000000
     31755      2485  TIP3      H2            -22.0341500510       37.1966881055       37.6073396710  TIP3      2285            0.0000000000
     31756      2486  TIP3      OH2           -34.5768668448       29.4447802530       36.6988826870  TIP3      2286            0.0000000000
     31757      2486  TIP3      H1            -33.7467781883       29.5866465342       37.1878994199  TIP3      2286            0.0000000000
     31758      2486  TIP3      H2            -35.2206381525       29.7383858010       37.3764089534  TIP3      2286            0.0000000000
     31759      2487  TIP3      OH2           -28.7677945794       24.8563009884       29.1812300885  TIP3      2287            0.0000000000
     31760      2487  TIP3      H1            -27.8805876072       24.6199346090       28.8692019274  TIP3      2287            0.0000000000
     31761      2487  TIP3      H2            -28.8113891217       24.3743661470       30.0166582431  TIP3      2287            0.0000000000
     31762      2488  TIP3      OH2           -30.1284201647       23.1772460669       32.0359375653  TIP3      2288            0.0000000000
     31763      2488  TIP3      H1            -30.8470939214       23.8108501537       32.2228302670  TIP3      2288            0.0000000000
     31764      2488  TIP3      H2            -29.3753640820       23.5872003379       32.4889062831  TIP3      2288            0.0000000000
     31765      2489  TIP3      OH2           -29.5711208816       29.3818608333       23.7023655413  TIP3      2289            0.0000000000
     31766      2489  TIP3      H1            -30.4537385567       29.0381396078       23.4993928294  TIP3      2289            0.0000000000
     31767      2489  TIP3      H2            -29.7137780764       29.9014616840       24.5188666630  TIP3      2289            0.0000000000
     31768      2490  TIP3      OH2           -22.0957041387       29.0865966297       32.4513986522  TIP3      2290            0.0000000000
     31769      2490  TIP3      H1            -21.6676551564       29.4844065285       31.6537702955  TIP3      2290            0.0000000000
     31770      2490  TIP3      H2            -22.9821275257       28.8898243528       32.0909606114  TIP3      2290            0.0000000000
     31771      2491  TIP3      OH2           -28.1413166069       29.9278492720       34.8449036087  TIP3      2291            0.0000000000
     31772      2491  TIP3      H1            -28.2211694291       29.4966495232       35.7025650385  TIP3      2291            0.0000000000
     31773      2491  TIP3      H2            -28.2181192772       30.8736377148       35.0534000268  TIP3      2291            0.0000000000
     31774      2492  TIP3      OH2           -25.1788903128       24.6304470200       24.0965054689  TIP3      2292            0.0000000000
     31775      2492  TIP3      H1            -24.3043843199       24.2193637019       24.1929322587  TIP3      2292            0.0000000000
     31776      2492  TIP3      H2            -25.1580618073       24.9760493587       23.1890495343  TIP3      2292            0.0000000000
     31777      2493  TIP3      OH2           -34.0010193560       29.1076257288       29.2680394099  TIP3      2293            0.0000000000
     31778      2493  TIP3      H1            -33.4513120570       29.1396253564       28.4538229534  TIP3      2293            0.0000000000
     31779      2493  TIP3      H2            -33.8537429677       28.2166625052       29.6076411320  TIP3      2293            0.0000000000
     31780      2494  TIP3      OH2           -36.5789445084       26.7946345264       34.4114603179  TIP3      2294            0.0000000000
     31781      2494  TIP3      H1            -36.6122772723       26.6176057170       35.3683311063  TIP3      2294            0.0000000000
     31782      2494  TIP3      H2            -37.5385541772       26.8528091225       34.1882887811  TIP3      2294            0.0000000000
     31783      2495  TIP3      OH2           -30.2686869962       26.9085651302       36.6718082012  TIP3      2295            0.0000000000
     31784      2495  TIP3      H1            -30.7452388226       26.2976267801       36.0919624038  TIP3      2295            0.0000000000
     31785      2495  TIP3      H2            -29.3935434523       26.4540862094       36.7079026944  TIP3      2295            0.0000000000
     31786      2496  TIP3      OH2           -25.5213334805       32.1545584368       34.9717125320  TIP3      2296            0.0000000000
     31787      2496  TIP3      H1            -26.1790944422       32.4448719813       34.3345692224  TIP3      2296            0.0000000000
     31788      2496  TIP3      H2            -25.8179050887       32.6016387091       35.7887566422  TIP3      2296            0.0000000000
     31789      2497  TIP3      OH2           -20.5324249611       24.4877508775       23.8648165305  TIP3      2297            0.0000000000
     31790      2497  TIP3      H1            -20.7463899630       24.3004492985       22.9279993486  TIP3      2297            0.0000000000
     31791      2497  TIP3      H2            -20.3162051852       25.4379517040       23.8155945052  TIP3      2297            0.0000000000
     31792      2498  TIP3      OH2           -19.9424378154       30.3723648617       35.9781762905  TIP3      2298            0.0000000000
     31793      2498  TIP3      H1            -20.9034736094       30.4734412817       35.7662684678  TIP3      2298            0.0000000000
     31794      2498  TIP3      H2            -19.5778949214       30.3361826623       35.0671868906  TIP3      2298            0.0000000000
     31795      2499  TIP3      OH2           -21.3358939834       32.8541148712       23.3487173752  TIP3      2299            0.0000000000
     31796      2499  TIP3      H1            -21.9569005329       32.1873831684       23.6818473653  TIP3      2299            0.0000000000
     31797      2499  TIP3      H2            -21.7611619575       33.0922204206       22.5041279337  TIP3      2299            0.0000000000
     31798      2500  TIP3      OH2           -24.2247271042       27.7787686577       31.0665183747  TIP3      2300            0.0000000000
     31799      2500  TIP3      H1            -25.1562228544       27.6360369663       30.8347429122  TIP3      2300            0.0000000000
     31800      2500  TIP3      H2            -23.7949981679       27.1323442249       30.4759709578  TIP3      2300            0.0000000000
     31801      2501  TIP3      OH2           -31.9940391693       32.3837551004       26.7095322007  TIP3      2301            0.0000000000
     31802      2501  TIP3      H1            -31.8557818377       33.2233031863       26.2133954542  TIP3      2301            0.0000000000
     31803      2501  TIP3      H2            -32.9569393810       32.2963330349       26.6665945286  TIP3      2301            0.0000000000
     31804      2502  TIP3      OH2           -36.5415898887       27.0421253775       21.1413018821  TIP3      2302            0.0000000000
     31805      2502  TIP3      H1            -35.7039879854       27.5253496593       21.2406751652  TIP3      2302            0.0000000000
     31806      2502  TIP3      H2            -36.8353773749       26.9121212004       22.0540454086  TIP3      2302            0.0000000000
     31807      2503  TIP3      OH2           -30.2610989633       30.2024129549       26.3265276369  TIP3      2303            0.0000000000
     31808      2503  TIP3      H1            -30.9322966961       30.9084319430       26.3991751211  TIP3      2303            0.0000000000
     31809      2503  TIP3      H2            -30.8174627920       29.4035832802       26.4155643169  TIP3      2303            0.0000000000
     31810      2504  TIP3      OH2           -30.0606448743       34.1713286460       32.9997305015  TIP3      2304            0.0000000000
     31811      2504  TIP3      H1            -29.6597291142       35.0534000198       33.0540109551  TIP3      2304            0.0000000000
     31812      2504  TIP3      H2            -29.4302442679       33.6215244518       33.5177918180  TIP3      2304            0.0000000000
     31813      2505  TIP3      OH2           -32.0168056349       34.8747512468       25.6135571534  TIP3      2305            0.0000000000
     31814      2505  TIP3      H1            -32.9254753749       35.0432444464       25.9511147388  TIP3      2305            0.0000000000
     31815      2505  TIP3      H2            -31.5183844832       35.4782120079       26.1964247276  TIP3      2305            0.0000000000
     31816      2506  TIP3      OH2           -26.9291370283       30.1603288400       32.3826214036  TIP3      2306            0.0000000000
     31817      2506  TIP3      H1            -27.2404564525       30.0647523665       33.3192801010  TIP3      2306            0.0000000000
     31818      2506  TIP3      H2            -26.3618451698       29.3813923626       32.2760871457  TIP3      2306            0.0000000000
     31819      2507  TIP3      OH2           -23.9059198900       34.7488538053       34.8379636919  TIP3      2307            0.0000000000
     31820      2507  TIP3      H1            -24.6847270250       34.2320706179       34.5450867879  TIP3      2307            0.0000000000
     31821      2507  TIP3      H2            -23.7809361525       35.4225475249       34.1377218400  TIP3      2307            0.0000000000
     31822      2508  TIP3      OH2           -35.6242336479       22.1439364145       34.1602177683  TIP3      2308            0.0000000000
     31823      2508  TIP3      H1            -36.0167051361       22.5362543692       34.9727624943  TIP3      2308            0.0000000000
     31824      2508  TIP3      H2            -35.8875680364       21.2141419552       34.2446874920  TIP3      2308            0.0000000000
     31825      2509  TIP3      OH2           -35.9950232763       33.6579353756       32.6385426382  TIP3      2309            0.0000000000
     31826      2509  TIP3      H1            -35.3940806151       32.9592901522       32.9553925169  TIP3      2309            0.0000000000
     31827      2509  TIP3      H2            -35.9848864164       34.2510948934       33.3947991414  TIP3      2309            0.0000000000
     31828      2510  TIP3      OH2           -30.9340298977       32.3546929512       22.5299894593  TIP3      2310            0.0000000000
     31829      2510  TIP3      H1            -30.4969521803       31.5149921210       22.2858196019  TIP3      2310            0.0000000000
     31830      2510  TIP3      H2            -30.5334700167       32.5144416275       23.3975902593  TIP3      2310            0.0000000000
     31831      2511  TIP3      OH2           -35.2145937867       28.7791816429       23.2427327112  TIP3      2311            0.0000000000
     31832      2511  TIP3      H1            -35.9634955591       29.4084755342       23.2593758233  TIP3      2311            0.0000000000
     31833      2511  TIP3      H2            -34.5866840635       29.2408164914       22.6617167521  TIP3      2311            0.0000000000
     31834      2512  TIP3      OH2           -27.0492147657       21.7490338343       33.4789773194  TIP3      2312            0.0000000000
     31835      2512  TIP3      H1            -26.1365918422       21.8844584987       33.7737625415  TIP3      2312            0.0000000000
     31836      2512  TIP3      H2            -27.2329968663       20.8021239669       33.6654835112  TIP3      2312            0.0000000000
     31837      2513  TIP3      OH2           -26.6162277899       21.3946210949       24.7635326851  TIP3      2313            0.0000000000
     31838      2513  TIP3      H1            -26.3905901765       21.6587899083       23.8612959679  TIP3      2313            0.0000000000
     31839      2513  TIP3      H2            -25.9267980535       21.7951354825       25.3290858435  TIP3      2313            0.0000000000
     31840      2514  TIP3      OH2           -28.7169916121       23.1211720264       25.9261551204  TIP3      2314            0.0000000000
     31841      2514  TIP3      H1            -28.2305307163       23.8493309109       25.4856599937  TIP3      2314            0.0000000000
     31842      2514  TIP3      H2            -29.1754251057       23.5858251065       26.6248642677  TIP3      2314            0.0000000000
     31843      2515  TIP3      OH2           -27.9048677818       24.1943595473       34.2832644349  TIP3      2315            0.0000000000
     31844      2515  TIP3      H1            -27.7948711381       24.4010182072       35.2254449889  TIP3      2315            0.0000000000
     31845      2515  TIP3      H2            -27.7264809043       23.2197972378       34.2360965585  TIP3      2315            0.0000000000
     31846      2516  TIP3      OH2           -28.0498954001       19.8787114477       26.3261908087  TIP3      2316            0.0000000000
     31847      2516  TIP3      H1            -28.5580082006       20.5895876063       26.7458552890  TIP3      2316            0.0000000000
     31848      2516  TIP3      H2            -27.3923589426       20.4591132555       25.8470071324  TIP3      2316            0.0000000000
     31849      2517  TIP3      OH2           -22.5032825952       21.8709555305       35.2193403302  TIP3      2317            0.0000000000
     31850      2517  TIP3      H1            -23.4364264373       22.1323955342       35.0463307353  TIP3      2317            0.0000000000
     31851      2517  TIP3      H2            -22.0409200255       22.2019215507       34.4240641209  TIP3      2317            0.0000000000
     31852      2518  TIP3      OH2           -23.3835252996       25.7692560637       29.1974829643  TIP3      2318            0.0000000000
     31853      2518  TIP3      H1            -24.1461443250       25.1634880721       29.1068089257  TIP3      2318            0.0000000000
     31854      2518  TIP3      H2            -22.7306415280       25.2230371388       29.6785903297  TIP3      2318            0.0000000000
     31855      2519  TIP3      OH2           -35.8968563397       24.5164531292       20.1837264767  TIP3      2319            0.0000000000
     31856      2519  TIP3      H1            -35.7990732361       25.4641609138       20.3996310566  TIP3      2319            0.0000000000
     31857      2519  TIP3      H2            -36.8557218409       24.4586809652       20.1412112309  TIP3      2319            0.0000000000
     31858      2520  TIP3      OH2           -22.6066977066       35.2781760632       30.9543848443  TIP3      2320            0.0000000000
     31859      2520  TIP3      H1            -22.5371151104       35.8626641230       30.1637501520  TIP3      2320            0.0000000000
     31860      2520  TIP3      H2            -21.6996442766       34.9372856370       30.9577729655  TIP3      2320            0.0000000000
     31861      2521  TIP3      OH2           -36.2799938476       32.5690238122       25.2930989948  TIP3      2321            0.0000000000
     31862      2521  TIP3      H1            -37.1188631100       32.9199511617       25.5923072489  TIP3      2321            0.0000000000
     31863      2521  TIP3      H2            -36.0449353808       33.2820687159       24.6493259052  TIP3      2321            0.0000000000
     31864      2522  TIP3      OH2           -37.1516579592       35.8649665007       36.8302283560  TIP3      2322            0.0000000000
     31865      2522  TIP3      H1            -36.2488889232       36.0657191193       37.1315338426  TIP3      2322            0.0000000000
     31866      2522  TIP3      H2            -37.2725422021       35.0028979134       37.2400237799  TIP3      2322            0.0000000000
     31867      2523  TIP3      OH2           -31.8202215885       34.3248649685       38.6735016373  TIP3      2323            0.0000000000
     31868      2523  TIP3      H1            -30.9988929605       33.8669094289       38.4430510690  TIP3      2323            0.0000000000
     31869      2523  TIP3      H2            -32.3341547014       34.1891899348       37.8609863627  TIP3      2323            0.0000000000
     31870      2524  TIP3      OH2           -25.9914184493       33.1759327279       37.4977174718  TIP3      2324            0.0000000000
     31871      2524  TIP3      H1            -26.3969697782       32.3009274288       37.6944177657  TIP3      2324            0.0000000000
     31872      2524  TIP3      H2            -25.1993034058       33.1231929562       38.0606922675  TIP3      2324            0.0000000000
     31873      2525  TIP3      OH2           -36.5374868036       29.9472234346       38.4650269095  TIP3      2325            0.0000000000
     31874      2525  TIP3      H1            -36.5195744329       29.0032237583       38.2420664158  TIP3      2325            0.0000000000
     31875      2525  TIP3      H2            -37.4499023159       30.1060834700       38.1511296199  TIP3      2325            0.0000000000
     31876      2526  TIP3      OH2           -30.3947072939       29.4845942301       37.2366500658  TIP3      2326            0.0000000000
     31877      2526  TIP3      H1            -30.6522587949       29.9890475492       36.4250223215  TIP3      2326            0.0000000000
     31878      2526  TIP3      H2            -30.4307137790       28.5378672963       36.9577508932  TIP3      2326            0.0000000000
     31879      2527  TIP3      OH2           -27.5351620153       31.2444739340       20.0226751803  TIP3      2327            0.0000000000
     31880      2527  TIP3      H1            -27.3078042383       31.5214284939       20.9271093992  TIP3      2327            0.0000000000
     31881      2527  TIP3      H2            -28.1473123856       30.5325165015       20.2059147635  TIP3      2327            0.0000000000
     31882      2528  TIP3      OH2           -24.7902329071       29.2791683007       34.9623960166  TIP3      2328            0.0000000000
     31883      2528  TIP3      H1            -23.9114548568       29.7035955312       34.9292913877  TIP3      2328            0.0000000000
     31884      2528  TIP3      H2            -25.3408307685       30.0870254391       34.9973259560  TIP3      2328            0.0000000000
     31885      2529  TIP3      OH2           -36.1157181055       26.5924195833       37.7467980693  TIP3      2329            0.0000000000
     31886      2529  TIP3      H1            -35.4271321794       25.8927546996       37.6657878634  TIP3      2329            0.0000000000
     31887      2529  TIP3      H2            -35.9938006859       26.8957126670       38.6686828107  TIP3      2329            0.0000000000
     31888      2530  TIP3      OH2           -32.1730729833       25.6108571167       34.4464340366  TIP3      2330            0.0000000000
     31889      2530  TIP3      H1            -32.7222788700       26.3928823427       34.6505440760  TIP3      2330            0.0000000000
     31890      2530  TIP3      H2            -31.4082757140       26.0290783305       33.9932253040  TIP3      2330            0.0000000000
     31891      2531  TIP3      OH2           -30.5540863296       26.0546926956       20.6005605814  TIP3      2331            0.0000000000
     31892      2531  TIP3      H1            -30.4193414685       26.9963119525       20.4001705397  TIP3      2331            0.0000000000
     31893      2531  TIP3      H2            -29.8685567393       25.8681768516       21.2589378123  TIP3      2331            0.0000000000
     31894      2532  TIP3      OH2           -26.8322659824       28.2753507829       38.1808690698  TIP3      2332            0.0000000000
     31895      2532  TIP3      H1            -26.0486765486       27.7883207516       37.8793392723  TIP3      2332            0.0000000000
     31896      2532  TIP3      H2            -27.2295325143       27.6100061987       38.7888716691  TIP3      2332            0.0000000000
     31897      2533  TIP3      OH2           -31.6980806022       23.2303561776       35.6441062322  TIP3      2333            0.0000000000
     31898      2533  TIP3      H1            -31.6468894224       22.5776517666       34.9174108982  TIP3      2333            0.0000000000
     31899      2533  TIP3      H2            -31.7391187927       24.0790745025       35.1522657243  TIP3      2333            0.0000000000
     31900      2534  TIP3      OH2           -31.4572177827       21.2615947579       33.3816543643  TIP3      2334            0.0000000000
     31901      2534  TIP3      H1            -30.9670614702       21.8300784431       32.7428570007  TIP3      2334            0.0000000000
     31902      2534  TIP3      H2            -32.3090661852       21.1187196812       32.9192378780  TIP3      2334            0.0000000000
     31903      2535  TIP3      OH2           -29.9987556283       27.0198138245       33.4738962308  TIP3      2335            0.0000000000
     31904      2535  TIP3      H1            -29.2124273627       27.4877196420       33.1531058127  TIP3      2335            0.0000000000
     31905      2535  TIP3      H2            -30.6527436855       27.7181865499       33.2493850595  TIP3      2335            0.0000000000
     31906      2536  TIP3      OH2           -25.6948413546       24.6183173780       38.5647634584  TIP3      2336            0.0000000000
     31907      2536  TIP3      H1            -25.4043606877       23.7132767038       38.3687573182  TIP3      2336            0.0000000000
     31908      2536  TIP3      H2            -24.8697662925       25.0739286794       38.7809776288  TIP3      2336            0.0000000000
     31909      2537  TIP3      OH2           -24.0342135139       27.7817824233       37.0675532214  TIP3      2337            0.0000000000
     31910      2537  TIP3      H1            -24.4680651407       28.2854531703       36.3542754758  TIP3      2337            0.0000000000
     31911      2537  TIP3      H2            -23.1344774097       27.7117585061       36.7027143162  TIP3      2337            0.0000000000
     31912      2538  TIP3      OH2           -34.0406436096       24.6392188293       37.2912207123  TIP3      2338            0.0000000000
     31913      2538  TIP3      H1            -34.4909977640       23.8090242580       37.5531868538  TIP3      2338            0.0000000000
     31914      2538  TIP3      H2            -33.2989260304       24.2788345995       36.7773983716  TIP3      2338            0.0000000000
     31915      2539  TIP3      OH2           -30.5034272515       18.8082278113       33.6366556978  TIP3      2339            0.0000000000
     31916      2539  TIP3      H1            -30.7636795021       19.7538301276       33.5947166626  TIP3      2339            0.0000000000
     31917      2539  TIP3      H2            -31.2555779988       18.3947190246       33.1917232623  TIP3      2339            0.0000000000
     31918      2540  TIP3      OH2           -29.4316500439       22.9946902901       37.5917613546  TIP3      2340            0.0000000000
     31919      2540  TIP3      H1            -29.9603696132       22.7638625554       38.3779303831  TIP3      2340            0.0000000000
     31920      2540  TIP3      H2            -30.1203001573       22.9740830593       36.9012362094  TIP3      2340            0.0000000000
     31921      2541  TIP3      OH2           -26.7059461235       22.2432780608       36.7461345514  TIP3      2341            0.0000000000
     31922      2541  TIP3      H1            -27.6614315380       22.2567064899       36.9222945057  TIP3      2341            0.0000000000
     31923      2541  TIP3      H2            -26.3947075660       21.7289827036       37.5249288680  TIP3      2341            0.0000000000
     31924      2542  TIP3      OH2           -25.1460124747       20.9262692057       38.5430893697  TIP3      2342            0.0000000000
     31925      2542  TIP3      H1            -25.1582171934       19.9429302660       38.4864528741  TIP3      2342            0.0000000000
     31926      2542  TIP3      H2            -25.2801861027       21.0762449692       39.4970708068  TIP3      2342            0.0000000000
     31927      2543  TIP3      OH2           -35.2719501566       22.1550798921       37.9034201495  TIP3      2343            0.0000000000
     31928      2543  TIP3      H1            -35.0493570001       21.3242304161       37.4554736165  TIP3      2343            0.0000000000
     31929      2543  TIP3      H2            -35.6596578455       21.7955629145       38.7418067513  TIP3      2343            0.0000000000
     31930      2544  TIP3      OH2           -30.5990638159       18.5705546900       36.4913331062  TIP3      2344            0.0000000000
     31931      2544  TIP3      H1            -29.8063192675       17.9987040004       36.5671888870  TIP3      2344            0.0000000000
     31932      2544  TIP3      H2            -30.6712065690       18.5695714976       35.5106413171  TIP3      2344            0.0000000000
     31933      2545  TIP3      OH2           -30.5571423960       19.7455884513       38.9369897292  TIP3      2345            0.0000000000
     31934      2545  TIP3      H1            -30.5562289063       19.3016923707       38.0557369700  TIP3      2345            0.0000000000
     31935      2545  TIP3      H2            -31.0077593597       20.5918880623       38.7710265905  TIP3      2345            0.0000000000
     31936      2546  TIP3      OH2           -36.7112600386       31.2159868189       21.1512862248  TIP3      2346            0.0000000000
     31937      2546  TIP3      H1            -36.0653618412       31.8666904064       20.7863815401  TIP3      2346            0.0000000000
     31938      2546  TIP3      H2            -36.8777927761       30.6271514188       20.3978877784  TIP3      2346            0.0000000000
     31939      2547  TIP3      OH2           -37.9319968807       36.5169566308       25.4645563384  TIP3      2347            0.0000000000
     31940      2547  TIP3      H1            -38.8329934461       36.8050822841       25.7167122236  TIP3      2347            0.0000000000
     31941      2547  TIP3      H2            -37.8822392890       35.7086269291       25.9905126614  TIP3      2347            0.0000000000
     31942      2548  TIP3      OH2           -36.7647220984       34.6838928008       27.9981612452  TIP3      2348            0.0000000000
     31943      2548  TIP3      H1            -36.9543782229       33.7614792225       28.2532686229  TIP3      2348            0.0000000000
     31944      2548  TIP3      H2            -36.5346847560       35.0548470811       28.8712208475  TIP3      2348            0.0000000000
     31945      2549  TIP3      OH2           -19.6449706522       35.7996293360       30.6947939811  TIP3      2349            0.0000000000
     31946      2549  TIP3      H1            -19.4369218092       36.1277595673       31.5970796053  TIP3      2349            0.0000000000
     31947      2549  TIP3      H2            -19.4318649480       36.5644938415       30.1420614897  TIP3      2349            0.0000000000
     31948      2550  TIP3      OH2           -20.3325340576       35.0676362325       34.2605473341  TIP3      2350            0.0000000000
     31949      2550  TIP3      H1            -20.5512588564       34.3836622928       33.5923130839  TIP3      2350            0.0000000000
     31950      2550  TIP3      H2            -19.9365723902       34.4732230858       34.9293024044  TIP3      2350            0.0000000000
     31951      2551  TIP3      OH2           -21.7588122224       31.1433982496       38.6008602117  TIP3      2351            0.0000000000
     31952      2551  TIP3      H1            -22.6151087202       31.0694726688       39.0747275515  TIP3      2351            0.0000000000
     31953      2551  TIP3      H2            -21.4247801752       31.9901904551       38.9518486970  TIP3      2351            0.0000000000
     31954      2552  TIP3      OH2           -20.4306305143       29.2269959238       24.0227308927  TIP3      2352            0.0000000000
     31955      2552  TIP3      H1            -19.5742608205       29.6756436155       24.1752097687  TIP3      2352            0.0000000000
     31956      2552  TIP3      H2            -20.4250460157       28.5451625205       24.7113067324  TIP3      2352            0.0000000000
     31957      2553  TIP3      OH2           -20.2304522842       27.4698122368       26.0871189630  TIP3      2353            0.0000000000
     31958      2553  TIP3      H1            -20.9831282721       26.8486293638       26.2470705499  TIP3      2353            0.0000000000
     31959      2553  TIP3      H2            -19.9147687691       27.6265315792       26.9938904278  TIP3      2353            0.0000000000
     31960      2554  TIP3      OH2           -20.6313885378       30.0617830534       30.5391057082  TIP3      2354            0.0000000000
     31961      2554  TIP3      H1            -19.9121183605       29.3965445934       30.4695678977  TIP3      2354            0.0000000000
     31962      2554  TIP3      H2            -20.1209092139       30.8821216444       30.4265986901  TIP3      2354            0.0000000000
     31963      2555  TIP3      OH2           -21.7011901443       32.9060935534       33.3133197778  TIP3      2355            0.0000000000
     31964      2555  TIP3      H1            -22.3586682211       33.3489217063       33.8784726451  TIP3      2355            0.0000000000
     31965      2555  TIP3      H2            -22.2454855438       32.6122154504       32.5459597835  TIP3      2355            0.0000000000
     31966      2556  TIP3      OH2           -21.1782425993       24.5056634490       20.9571785846  TIP3      2356            0.0000000000
     31967      2556  TIP3      H1            -21.3316428085       25.0983615870       20.2078253640  TIP3      2356            0.0000000000
     31968      2556  TIP3      H2            -21.9787084307       23.9513747146       20.9410842444  TIP3      2356            0.0000000000
     31969      2557  TIP3      OH2           -22.2234320701       25.8654854150       26.6990249995  TIP3      2357            0.0000000000
     31970      2557  TIP3      H1            -22.4077784770       24.9419616588       26.4331784642  TIP3      2357            0.0000000000
     31971      2557  TIP3      H2            -22.5565559261       25.9047791781       27.6206663102  TIP3      2357            0.0000000000
     31972      2558  TIP3      OH2           -36.7418226174       28.7686934864       30.4927191534  TIP3      2358            0.0000000000
     31973      2558  TIP3      H1            -36.8124454529       28.0994148224       29.7775120901  TIP3      2358            0.0000000000
     31974      2558  TIP3      H2            -35.9023123845       28.4973315173       30.9062325552  TIP3      2358            0.0000000000
     31975      2559  TIP3      OH2           -21.1950279379       27.8584439768       36.2438879189  TIP3      2359            0.0000000000
     31976      2559  TIP3      H1            -20.7610071180       26.9867464820       36.3900801510  TIP3      2359            0.0000000000
     31977      2559  TIP3      H2            -20.4614797826       28.4333618670       35.9551550219  TIP3      2359            0.0000000000
     31978      2560  TIP3      OH2           -20.1529228530       25.3420618514       36.4997325143  TIP3      2360            0.0000000000
     31979      2560  TIP3      H1            -21.1055064024       25.0701248411       36.4676397181  TIP3      2360            0.0000000000
     31980      2560  TIP3      H2            -19.6976410855       24.4853868995       36.6474082480  TIP3      2360            0.0000000000
     31981      2561  TIP3      OH2           -22.7773750577       23.6045617465       25.3080367031  TIP3      2361            0.0000000000
     31982      2561  TIP3      H1            -22.6093519134       22.6323441711       25.3338988141  TIP3      2361            0.0000000000
     31983      2561  TIP3      H2            -21.9963574572       23.8609257078       24.7866372972  TIP3      2361            0.0000000000
     31984      2562  TIP3      OH2           -21.6079939397       24.0735136266       30.5425389876  TIP3      2362            0.0000000000
     31985      2562  TIP3      H1            -20.6272710809       24.2177286946       30.5988627078  TIP3      2362            0.0000000000
     31986      2562  TIP3      H2            -21.8417127653       24.2946261425       31.4628406431  TIP3      2362            0.0000000000
     31987      2563  TIP3      OH2           -21.8928403778       24.9368247599       33.0347704059  TIP3      2363            0.0000000000
     31988      2563  TIP3      H1            -22.7458878573       25.3244555780       33.3053533466  TIP3      2363            0.0000000000
     31989      2563  TIP3      H2            -21.3738241596       25.7609931107       32.8653905984  TIP3      2363            0.0000000000
     31990      2564  TIP3      OH2           -37.1508471700       22.8917405486       36.2300763138  TIP3      2364            0.0000000000
     31991      2564  TIP3      H1            -36.4379052110       22.9801038161       36.9064397822  TIP3      2364            0.0000000000
     31992      2564  TIP3      H2            -37.2413974097       21.9290598779       36.2066975783  TIP3      2364            0.0000000000
     31993      2565  TIP3      OH2           -19.4577797653       19.1124203650       38.7126680630  TIP3      2365            0.0000000000
     31994      2565  TIP3      H1            -19.0404260574       18.3596337063       38.2669153563  TIP3      2365            0.0000000000
     31995      2565  TIP3      H2            -19.6073983301       19.7760923281       37.9977172460  TIP3      2365            0.0000000000
     31996      2566  TIP3      OH2           -21.9922786620       21.0792910378       25.4595511987  TIP3      2366            0.0000000000
     31997      2566  TIP3      H1            -21.7273595719       20.5123549679       26.2111067499  TIP3      2366            0.0000000000
     31998      2566  TIP3      H2            -22.5951824034       20.5004964797       24.9703432143  TIP3      2366            0.0000000000
     31999      2567  TIP3      OH2           -36.3354743634       21.3339792902       29.8774507877  TIP3      2367            0.0000000000
     32000      2567  TIP3      H1            -36.1213030024       20.6271486725       30.4952115180  TIP3      2367            0.0000000000
     32001      2567  TIP3      H2            -36.2979992819       22.1543342388       30.4054940681  TIP3      2367            0.0000000000
     32002      2568  TIP3      OH2           -37.5334978199       24.6374254884       30.5447933196  TIP3      2368            0.0000000000
     32003      2568  TIP3      H1            -37.0807828960       24.9444780158       29.7259822617  TIP3      2368            0.0000000000
     32004      2568  TIP3      H2            -37.2969766379       25.3310791006       31.1639645266  TIP3      2368            0.0000000000
     32005      2569  TIP3      OH2           -20.2188911004       20.7680323209       36.7719102648  TIP3      2369            0.0000000000
     32006      2569  TIP3      H1            -20.9004042447       21.1659989680       37.3718619745  TIP3      2369            0.0000000000
     32007      2569  TIP3      H2            -20.6745093888       21.0059088103       35.9418504738  TIP3      2369            0.0000000000
     32008      2570  TIP3      OH2           -20.2692496854       20.7057072147       22.1834529406  TIP3      2370            0.0000000000
     32009      2570  TIP3      H1            -20.3615647359       20.1399767660       21.3870491446  TIP3      2370            0.0000000000
     32010      2570  TIP3      H2            -19.4760604106       21.2058593553       21.9492927459  TIP3      2370            0.0000000000
     32011      2571  TIP3      OH2           -37.0833510480       21.6216105455       25.3761177365  TIP3      2371            0.0000000000
     32012      2571  TIP3      H1            -37.9573686599       21.1854258586       25.4403413696  TIP3      2371            0.0000000000
     32013      2571  TIP3      H2            -36.5327109249       20.8784277563       25.0719504175  TIP3      2371            0.0000000000
     32014      2572  TIP3      OH2           -23.0916271286       35.6334275260       26.7160842827  TIP3      2372            0.0000000000
     32015      2572  TIP3      H1            -22.3151063637       35.4119184700       26.1605449550  TIP3      2372            0.0000000000
     32016      2572  TIP3      H2            -22.6978811974       36.1244155444       27.4537727318  TIP3      2372            0.0000000000
     32017      2573  TIP3      OH2           -37.7164038453       19.2906419962       33.2423268403  TIP3      2373            0.0000000000
     32018      2573  TIP3      H1            -38.5937054308       19.0933432762       33.6135970905  TIP3      2373            0.0000000000
     32019      2573  TIP3      H2            -37.9669757145       19.8069624590       32.4627077621  TIP3      2373            0.0000000000
     32020      2574  TIP3      OH2           -35.7284520341       32.7687682495       37.1171023492  TIP3      2374            0.0000000000
     32021      2574  TIP3      H1            -36.6146994068       32.8192348549       36.7423683948  TIP3      2374            0.0000000000
     32022      2574  TIP3      H2            -35.9006542535       32.6579792186       38.0686737041  TIP3      2374            0.0000000000
     32023      2575  TIP3      OH2           -32.6364331627       33.8358136659       33.7693507800  TIP3      2375            0.0000000000
     32024      2575  TIP3      H1            -32.7635089135       34.7499729830       33.4333662733  TIP3      2375            0.0000000000
     32025      2575  TIP3      H2            -31.6620917477       33.7984847990       33.7051332576  TIP3      2375            0.0000000000
     32026      2576  TIP3      OH2           -28.4211580071       34.7492936734       36.3729579813  TIP3      2376            0.0000000000
     32027      2576  TIP3      H1            -28.4149680456       34.6707892079       37.3505438725  TIP3      2376            0.0000000000
     32028      2576  TIP3      H2            -27.6519516796       35.3330276179       36.2146156548  TIP3      2376            0.0000000000
     32029      2577  TIP3      OH2           -25.9578815904       36.6569365639       35.7387197363  TIP3      2377            0.0000000000
     32030      2577  TIP3      H1            -25.1393600136       36.1524453568       35.5662952319  TIP3      2377            0.0000000000
     32031      2577  TIP3      H2            -25.9049706636       36.7014103335       36.7240672668  TIP3      2377            0.0000000000
     32032      2578  TIP3      OH2           -21.5042019281       18.8867236490       34.9507274024  TIP3      2378            0.0000000000
     32033      2578  TIP3      H1            -22.0526089818       19.5073721221       34.4414794609  TIP3      2378            0.0000000000
     32034      2578  TIP3      H2            -21.8394111254       18.0327514304       34.6238524929  TIP3      2378            0.0000000000
     32035      2579  TIP3      OH2           -35.2843487768       37.3706909984       33.5777634073  TIP3      2379            0.0000000000
     32036      2579  TIP3      H1            -35.9966639749       37.4844775132       32.9169336892  TIP3      2379            0.0000000000
     32037      2579  TIP3      H2            -35.7914245292       37.1015908245       34.3522040713  TIP3      2379            0.0000000000
     32038      2580  TIP3      OH2           -33.0688503145       36.2514662831       32.6664374456  TIP3      2380            0.0000000000
     32039      2580  TIP3      H1            -33.8942291930       36.5762711688       33.0929885030  TIP3      2380            0.0000000000
     32040      2580  TIP3      H2            -33.0785892914       36.7830551644       31.8550476424  TIP3      2380            0.0000000000
     32041      2581  TIP3      OH2           -28.1444135419       36.4315155803       31.5027650589  TIP3      2381            0.0000000000
     32042      2581  TIP3      H1            -29.0366907437       36.5324964031       31.1055514775  TIP3      2381            0.0000000000
     32043      2581  TIP3      H2            -28.1074753587       37.1978536202       32.1107786188  TIP3      2381            0.0000000000
     32044      2582  TIP3      OH2           -26.1131693603       35.0042603940       32.5730275498  TIP3      2382            0.0000000000
     32045      2582  TIP3      H1            -26.8501099080       35.5431547273       32.2074554898  TIP3      2382            0.0000000000
     32046      2582  TIP3      H2            -25.4553957781       35.6852250052       32.7721646038  TIP3      2382            0.0000000000
     32047      2583  TIP3      OH2           -23.8275643510       36.8622569402       32.9438757960  TIP3      2383            0.0000000000
     32048      2583  TIP3      H1            -23.9541900361       37.8269794928       32.9212171395  TIP3      2383            0.0000000000
     32049      2583  TIP3      H2            -23.4038713168       36.6624091225       32.0796185148  TIP3      2383            0.0000000000
     32050      2584  TIP3      OH2           -35.7371629538       35.1896327480       30.5052112226  TIP3      2384            0.0000000000
     32051      2584  TIP3      H1            -35.7381117008       34.6837254717       31.3500150395  TIP3      2384            0.0000000000
     32052      2584  TIP3      H2            -34.9607087916       34.8016297506       30.0438755406  TIP3      2384            0.0000000000
     32053      2585  TIP3      OH2           -33.5896026890       34.4062400907       29.0390543404  TIP3      2385            0.0000000000
     32054      2585  TIP3      H1            -33.6100738489       33.4373374600       29.0680547225  TIP3      2385            0.0000000000
     32055      2585  TIP3      H2            -32.7117897012       34.5430669141       29.4694898732  TIP3      2385            0.0000000000
     32056      2586  TIP3      OH2           -31.3213155204       34.2376549180       30.4778309587  TIP3      2386            0.0000000000
     32057      2586  TIP3      H1            -31.0950247002       33.2904741094       30.3835709049  TIP3      2386            0.0000000000
     32058      2586  TIP3      H2            -30.9932058305       34.4323886269       31.3774777137  TIP3      2386            0.0000000000
     32059      2587  TIP3      OH2           -27.6205313805       20.0444188860       29.3011298441  TIP3      2387            0.0000000000
     32060      2587  TIP3      H1            -28.5705963994       20.1702221243       29.1665364895  TIP3      2387            0.0000000000
     32061      2587  TIP3      H2            -27.3947098680       19.5865642086       28.4787630841  TIP3      2387            0.0000000000
     32062      2588  TIP3      OH2           -22.4931645229       18.3537395736       29.0672766729  TIP3      2388            0.0000000000
     32063      2588  TIP3      H1            -21.8897194213       18.9994114715       28.6216123207  TIP3      2388            0.0000000000
     32064      2588  TIP3      H2            -23.3708723818       18.6015366246       28.6949251364  TIP3      2388            0.0000000000
     32065      2589  TIP3      OH2           -20.8398661871       19.7772277339       27.5575593859  TIP3      2389            0.0000000000
     32066      2589  TIP3      H1            -20.2076586411       19.1921094201       27.0765403336  TIP3      2389            0.0000000000
     32067      2589  TIP3      H2            -20.2965083293       20.5951251542       27.6421597020  TIP3      2389            0.0000000000
     32068      2590  TIP3      OH2           -25.0456642744       18.9168490899       28.2594039305  TIP3      2390            0.0000000000
     32069      2590  TIP3      H1            -25.2599956699       18.9675735383       27.3189362139  TIP3      2390            0.0000000000
     32070      2590  TIP3      H2            -25.5517281180       18.1250877811       28.5342970078  TIP3      2390            0.0000000000
     32071      2591  TIP3      OH2           -24.4513687465       19.0598464148       23.9027033693  TIP3      2391            0.0000000000
     32072      2591  TIP3      H1            -24.8826966700       19.1357256879       23.0111564535  TIP3      2391            0.0000000000
     32073      2591  TIP3      H2            -24.7094451276       18.1613761449       24.1914852288  TIP3      2391            0.0000000000
     32074      2592  TIP3      OH2           -36.3500595660       34.6556797057       23.6929826311  TIP3      2392            0.0000000000
     32075      2592  TIP3      H1            -37.2602733931       34.6654165521       23.3760037973  TIP3      2392            0.0000000000
     32076      2592  TIP3      H2            -36.0091704595       35.4561832661       23.2468019247  TIP3      2392            0.0000000000
     32077      2593  TIP3      OH2           -29.4965838756       21.0478358562       23.7218083195  TIP3      2393            0.0000000000
     32078      2593  TIP3      H1            -28.9357803779       20.5374112810       24.3134412593  TIP3      2393            0.0000000000
     32079      2593  TIP3      H2            -29.0280626594       21.8885973105       23.6624629016  TIP3      2393            0.0000000000
     32080      2594  TIP3      OH2           -21.1980464285       35.1142663272       24.9225635473  TIP3      2394            0.0000000000
     32081      2594  TIP3      H1            -21.2158103796       34.2393052122       24.4726257274  TIP3      2394            0.0000000000
     32082      2594  TIP3      H2            -21.2015499802       35.7175743135       24.1420035276  TIP3      2394            0.0000000000
     32083      2595  TIP3      OH2           -35.8019529199       19.4128832777       36.5464495122  TIP3      2395            0.0000000000
     32084      2595  TIP3      H1            -36.2408891566       18.5358747735       36.6446092880  TIP3      2395            0.0000000000
     32085      2595  TIP3      H2            -34.9282478708       19.2226531300       36.9535430703  TIP3      2395            0.0000000000
     32086      2596  TIP3      OH2           -33.5012990410       18.8419477611       38.3820396081  TIP3      2396            0.0000000000
     32087      2596  TIP3      H1            -32.5618003090       18.7845484036       38.1160295870  TIP3      2396            0.0000000000
     32088      2596  TIP3      H2            -33.6499507151       17.9073114269       38.5794730797  TIP3      2396            0.0000000000
     32089      2597  TIP3      OH2           -25.2269946025       18.2387634767       38.3107776179  TIP3      2397            0.0000000000
     32090      2597  TIP3      H1            -25.1845601284       17.6167068581       39.0738696421  TIP3      2397            0.0000000000
     32091      2597  TIP3      H2            -24.3090629374       18.1332356117       37.9765000996  TIP3      2397            0.0000000000
     32092      2598  TIP3      OH2           -22.1904317345       34.1274046225       36.9430556171  TIP3      2398            0.0000000000
     32093      2598  TIP3      H1            -22.9568880905       34.1895923995       36.3336272875  TIP3      2398            0.0000000000
     32094      2598  TIP3      H2            -21.9435025577       35.0588026297       37.0311208787  TIP3      2398            0.0000000000
     32095      2599  TIP3      OH2            -7.3078722091       28.1511380663       26.7632740005  TIP3      2399            0.0000000000
     32096      2599  TIP3      H1             -7.4482284663       29.0605882114       27.0620737458  TIP3      2399            0.0000000000
     32097      2599  TIP3      H2             -8.0708642423       28.0455348268       26.1673792189  TIP3      2399            0.0000000000
     32098      2600  TIP3      OH2            -8.4584247681       27.1963420961       30.2766393430  TIP3      2400            0.0000000000
     32099      2600  TIP3      H1             -8.4831355573       26.6000474788       31.0581221971  TIP3      2400            0.0000000000
     32100      2600  TIP3      H2             -9.1580837590       26.7968775240       29.7338281977  TIP3      2400            0.0000000000
     32101      2601  TIP3      OH2           -16.5355353453       27.0464700167       31.7951122574  TIP3      2401            0.0000000000
     32102      2601  TIP3      H1            -16.2993164349       26.2752606907       32.3290372532  TIP3      2401            0.0000000000
     32103      2601  TIP3      H2            -15.7673137278       27.6302478209       31.9226083088  TIP3      2401            0.0000000000
     32104      2602  TIP3      OH2            -5.1909940671       30.0791537440       28.7274237073  TIP3      2402            0.0000000000
     32105      2602  TIP3      H1             -5.3380785980       29.3524650354       29.3683923220  TIP3      2402            0.0000000000
     32106      2602  TIP3      H2             -5.1961189054       30.8566516625       29.2959352132  TIP3      2402            0.0000000000
     32107      2603  TIP3      OH2           -15.3312931957       31.5947334616       30.0743783117  TIP3      2403            0.0000000000
     32108      2603  TIP3      H1            -15.6235145118       30.7309175949       29.7032551940  TIP3      2403            0.0000000000
     32109      2603  TIP3      H2            -14.3683676795       31.4328708133       30.0123985855  TIP3      2403            0.0000000000
     32110      2604  TIP3      OH2           -18.6045753097       24.9790333516       25.6321105253  TIP3      2404            0.0000000000
     32111      2604  TIP3      H1            -18.9608517666       25.8759012942       25.7239670417  TIP3      2404            0.0000000000
     32112      2604  TIP3      H2            -19.4149868427       24.4909778929       25.4093826633  TIP3      2404            0.0000000000
     32113      2605  TIP3      OH2           -18.0119289439       27.3278865023       28.3632390732  TIP3      2405            0.0000000000
     32114      2605  TIP3      H1            -17.6005914027       26.4390469721       28.5274992534  TIP3      2405            0.0000000000
     32115      2605  TIP3      H2            -17.4738618266       27.6922349919       27.6482724947  TIP3      2405            0.0000000000
     32116      2606  TIP3      OH2            -8.0094682852       35.3095768086       28.5246385173  TIP3      2406            0.0000000000
     32117      2606  TIP3      H1             -7.2133555027       34.8908643196       28.1118540596  TIP3      2406            0.0000000000
     32118      2606  TIP3      H2             -8.2900499450       34.5778224154       29.0880960425  TIP3      2406            0.0000000000
     32119      2607  TIP3      OH2           -10.3393390119       29.9573337555       30.8397343946  TIP3      2407            0.0000000000
     32120      2607  TIP3      H1            -10.0456406944       29.2931628608       30.2055534349  TIP3      2407            0.0000000000
     32121      2607  TIP3      H2             -9.5207578679       30.0644679965       31.3726746569  TIP3      2407            0.0000000000
     32122      2608  TIP3      OH2            -1.7682195858       21.2831867587       31.5917031210  TIP3      2408            0.0000000000
     32123      2608  TIP3      H1             -1.6108399251       21.9201475853       32.3233895074  TIP3      2408            0.0000000000
     32124      2608  TIP3      H2             -1.0718892564       21.6024534010       30.9860125643  TIP3      2408            0.0000000000
     32125      2609  TIP3      OH2            -6.6368721614       24.2415523892       31.2672630028  TIP3      2409            0.0000000000
     32126      2609  TIP3      H1             -7.1404925625       23.6275031699       31.8351413920  TIP3      2409            0.0000000000
     32127      2609  TIP3      H2             -7.0579563710       24.0766659324       30.4028047903  TIP3      2409            0.0000000000
     32128      2610  TIP3      OH2           -13.7734153121       22.0534048118       27.9475560268  TIP3      2410            0.0000000000
     32129      2610  TIP3      H1            -13.6853138848       22.9185897639       27.4898550782  TIP3      2410            0.0000000000
     32130      2610  TIP3      H2            -14.3293684788       21.5526712516       27.3290594864  TIP3      2410            0.0000000000
     32131      2611  TIP3      OH2           -17.2412161342       24.9220005077       29.0160652726  TIP3      2411            0.0000000000
     32132      2611  TIP3      H1            -16.6563487271       24.4130448434       29.6080468516  TIP3      2411            0.0000000000
     32133      2611  TIP3      H2            -17.0142760212       24.4919042081       28.1576993711  TIP3      2411            0.0000000000
     32134      2612  TIP3      OH2           -12.4042217869       26.3987682418       28.4972784461  TIP3      2412            0.0000000000
     32135      2612  TIP3      H1            -11.5361424946       26.0022532074       28.6487168713  TIP3      2412            0.0000000000
     32136      2612  TIP3      H2            -12.9221177828       25.6021690186       28.2493683140  TIP3      2412            0.0000000000
     32137      2613  TIP3      OH2            -1.4629040752       22.8919742130       33.6521225855  TIP3      2413            0.0000000000
     32138      2613  TIP3      H1             -1.8535765763       23.7104076705       33.2772616038  TIP3      2413            0.0000000000
     32139      2613  TIP3      H2             -1.2370800962       23.1907939921       34.5415921040  TIP3      2413            0.0000000000
     32140      2614  TIP3      OH2           -14.8103459700       21.3211835851       32.2148207329  TIP3      2414            0.0000000000
     32141      2614  TIP3      H1            -15.2637505026       21.7473279131       31.4602853923  TIP3      2414            0.0000000000
     32142      2614  TIP3      H2            -15.4376017865       21.4827396420       32.9441089827  TIP3      2414            0.0000000000
     32143      2615  TIP3      OH2            -8.0465053857       30.8279181994       25.8489992561  TIP3      2415            0.0000000000
     32144      2615  TIP3      H1             -7.5210448402       30.7872045076       25.0434266651  TIP3      2415            0.0000000000
     32145      2615  TIP3      H2             -8.3834977125       31.7422625274       25.8451895300  TIP3      2415            0.0000000000
     32146      2616  TIP3      OH2           -12.6052910566       28.9575412187       31.9804914556  TIP3      2416            0.0000000000
     32147      2616  TIP3      H1            -13.1134011789       29.6986917615       32.3756181273  TIP3      2416            0.0000000000
     32148      2616  TIP3      H2            -11.8963737821       29.4340502906       31.5001729231  TIP3      2416            0.0000000000
     32149      2617  TIP3      OH2           -15.4196623550       23.2136701324       30.1616210030  TIP3      2417            0.0000000000
     32150      2617  TIP3      H1            -14.7739037583       23.7929103154       30.6420352727  TIP3      2417            0.0000000000
     32151      2617  TIP3      H2            -14.8761622630       22.9752039494       29.3807502165  TIP3      2417            0.0000000000
     32152      2618  TIP3      OH2           -13.9802805201       31.1042362371       33.1501841286  TIP3      2418            0.0000000000
     32153      2618  TIP3      H1            -14.1345906654       32.0286382751       32.8948038720  TIP3      2418            0.0000000000
     32154      2618  TIP3      H2            -14.8462154230       30.8915987587       33.5815763048  TIP3      2418            0.0000000000
     32155      2619  TIP3      OH2           -18.1918796360       30.6669554562       24.0219717164  TIP3      2419            0.0000000000
     32156      2619  TIP3      H1            -18.6975402583       31.3549336841       23.5804875985  TIP3      2419            0.0000000000
     32157      2619  TIP3      H2            -17.9094182666       31.1464983788       24.8334532449  TIP3      2419            0.0000000000
     32158      2620  TIP3      OH2            -4.3545851493       32.6348621390       31.1230150026  TIP3      2420            0.0000000000
     32159      2620  TIP3      H1             -5.3168662956       32.5261385687       31.2433961197  TIP3      2420            0.0000000000
     32160      2620  TIP3      H2             -4.3538715867       33.3896912213       30.5205161098  TIP3      2420            0.0000000000
     32161      2621  TIP3      OH2            -4.4554127136       20.6121934780       32.0264783282  TIP3      2421            0.0000000000
     32162      2621  TIP3      H1             -4.7303790254       21.5258209178       32.1836980877  TIP3      2421            0.0000000000
     32163      2621  TIP3      H2             -3.5371713070       20.7129777146       31.7054178224  TIP3      2421            0.0000000000
     32164      2622  TIP3      OH2           -11.5298756852       18.7897847526       29.3781000874  TIP3      2422            0.0000000000
     32165      2622  TIP3      H1            -11.6959826838       17.8762757623       29.6331253468  TIP3      2422            0.0000000000
     32166      2622  TIP3      H2            -12.3404475709       19.2280424660       29.7402814797  TIP3      2422            0.0000000000
     32167      2623  TIP3      OH2            -6.0702986340       34.0331945121       27.3090738787  TIP3      2423            0.0000000000
     32168      2623  TIP3      H1             -5.7922680867       33.2247861987       26.8307343688  TIP3      2423            0.0000000000
     32169      2623  TIP3      H2             -5.3765538417       34.6478546605       26.9720703525  TIP3      2423            0.0000000000
     32170      2624  TIP3      OH2            -5.0039207393       31.8770501125       25.8767098121  TIP3      2424            0.0000000000
     32171      2624  TIP3      H1             -5.0700627782       31.2494595478       25.1315393029  TIP3      2424            0.0000000000
     32172      2624  TIP3      H2             -4.9486535120       31.2469340603       26.6083647052  TIP3      2424            0.0000000000
     32173      2625  TIP3      OH2            -3.4600378343       30.5489555274       34.5641218969  TIP3      2425            0.0000000000
     32174      2625  TIP3      H1             -3.2028596065       29.8241341924       33.9478110241  TIP3      2425            0.0000000000
     32175      2625  TIP3      H2             -3.2242978769       31.3140248345       33.9976353002  TIP3      2425            0.0000000000
     32176      2626  TIP3      OH2            -8.7950636869       27.6152401141       24.3460728022  TIP3      2426            0.0000000000
     32177      2626  TIP3      H1             -9.4209899465       28.2619640107       23.9520076351  TIP3      2426            0.0000000000
     32178      2626  TIP3      H2             -8.0754881618       27.5976656716       23.6936912260  TIP3      2426            0.0000000000
     32179      2627  TIP3      OH2            -1.3590891876       26.9418805572       32.3966186564  TIP3      2427            0.0000000000
     32180      2627  TIP3      H1             -1.9618342963       27.7068998254       32.4889508344  TIP3      2427            0.0000000000
     32181      2627  TIP3      H2             -0.7697277334       27.3068034507       31.6965794337  TIP3      2427            0.0000000000
     32182      2628  TIP3      OH2            -5.2412201872       27.5041320658       25.2616887289  TIP3      2428            0.0000000000
     32183      2628  TIP3      H1             -5.9592431589       27.7710114270       25.8883507656  TIP3      2428            0.0000000000
     32184      2628  TIP3      H2             -4.6422127794       27.0036274286       25.8619568325  TIP3      2428            0.0000000000
     32185      2629  TIP3      OH2            -5.2725980798       26.0002715797       34.2961862411  TIP3      2429            0.0000000000
     32186      2629  TIP3      H1             -5.4331372639       26.8908486217       34.6453037573  TIP3      2429            0.0000000000
     32187      2629  TIP3      H2             -5.8849588986       26.0009410501       33.5437378593  TIP3      2429            0.0000000000
     32188      2630  TIP3      OH2           -13.8024103766       28.1253104883       27.0218061625  TIP3      2430            0.0000000000
     32189      2630  TIP3      H1            -14.1070734665       27.7187879301       26.1732111115  TIP3      2430            0.0000000000
     32190      2630  TIP3      H2            -13.1927783828       27.4407967579       27.3824987664  TIP3      2430            0.0000000000
     32191      2631  TIP3      OH2           -12.4545065396       31.5163243631       29.7308969950  TIP3      2431            0.0000000000
     32192      2631  TIP3      H1            -12.2782137835       31.6174200437       28.7742289982  TIP3      2431            0.0000000000
     32193      2631  TIP3      H2            -11.6090787341       31.1554076375       30.0814106742  TIP3      2431            0.0000000000
     32194      2632  TIP3      OH2           -13.6390532922       26.8997945392       30.7989035977  TIP3      2432            0.0000000000
     32195      2632  TIP3      H1            -13.2374929895       26.9068479631       29.8960532195  TIP3      2432            0.0000000000
     32196      2632  TIP3      H2            -13.1407288856       27.6236109597       31.2479065990  TIP3      2432            0.0000000000
     32197      2633  TIP3      OH2            -7.0290059941       32.6446796856       31.4723508637  TIP3      2433            0.0000000000
     32198      2633  TIP3      H1             -7.4276355290       33.3568700315       32.0160673409  TIP3      2433            0.0000000000
     32199      2633  TIP3      H2             -7.4126466906       31.8562026059       31.9102462066  TIP3      2433            0.0000000000
     32200      2634  TIP3      OH2           -12.4975965033       31.3974662672       35.5648826682  TIP3      2434            0.0000000000
     32201      2634  TIP3      H1            -13.1444694476       32.0439860937       35.9317941810  TIP3      2434            0.0000000000
     32202      2634  TIP3      H2            -12.8570647133       31.2750127483       34.6598332511  TIP3      2434            0.0000000000
     32203      2635  TIP3      OH2            -6.4630981934       26.9639803469       22.9956436678  TIP3      2435            0.0000000000
     32204      2635  TIP3      H1             -6.1282857336       27.0493296270       23.9216810214  TIP3      2435            0.0000000000
     32205      2635  TIP3      H2             -5.8875080620       27.6260340322       22.5903850247  TIP3      2435            0.0000000000
     32206      2636  TIP3      OH2           -15.4163736816       27.6033785419       34.5546712903  TIP3      2436            0.0000000000
     32207      2636  TIP3      H1            -15.4396377580       28.4886089950       34.9441053299  TIP3      2436            0.0000000000
     32208      2636  TIP3      H2            -15.9572425136       27.1349045470       35.2148108810  TIP3      2436            0.0000000000
     32209      2637  TIP3      OH2            -9.0245632640       33.4630322432       25.8030286993  TIP3      2437            0.0000000000
     32210      2637  TIP3      H1             -8.6070582459       33.4317227970       26.6701661204  TIP3      2437            0.0000000000
     32211      2637  TIP3      H2             -9.4539747134       34.3275680061       25.8496972379  TIP3      2437            0.0000000000
     32212      2638  TIP3      OH2           -14.3076481068       33.3328086916       36.1813192372  TIP3      2438            0.0000000000
     32213      2638  TIP3      H1            -14.4364006595       33.4159444628       35.2165079604  TIP3      2438            0.0000000000
     32214      2638  TIP3      H2            -15.1600480526       32.9168053432       36.4393424792  TIP3      2438            0.0000000000
     32215      2639  TIP3      OH2            -2.5842689670       18.4323820940       23.0721297381  TIP3      2439            0.0000000000
     32216      2639  TIP3      H1             -3.5410176072       18.4313666424       23.3372623580  TIP3      2439            0.0000000000
     32217      2639  TIP3      H2             -2.5441009215       19.2369580949       22.5238691388  TIP3      2439            0.0000000000
     32218      2640  TIP3      OH2           -14.8671696414       27.1191275616       24.7491417572  TIP3      2440            0.0000000000
     32219      2640  TIP3      H1            -15.1826664110       27.9067151085       24.2610986726  TIP3      2440            0.0000000000
     32220      2640  TIP3      H2            -15.3295501481       26.4091112868       24.2884714675  TIP3      2440            0.0000000000
     32221      2641  TIP3      OH2           -18.4645790951       29.8148617528       33.7443543127  TIP3      2441            0.0000000000
     32222      2641  TIP3      H1            -18.9271221021       29.7340137606       32.8985459547  TIP3      2441            0.0000000000
     32223      2641  TIP3      H2            -18.0940568732       28.9058291858       33.8451714807  TIP3      2441            0.0000000000
     32224      2642  TIP3      OH2           -18.6628009257       32.2718191041       30.0425223306  TIP3      2442            0.0000000000
     32225      2642  TIP3      H1            -17.7086121128       32.1064701419       30.0907113459  TIP3      2442            0.0000000000
     32226      2642  TIP3      H2            -18.7493080625       33.0542414969       30.6059186245  TIP3      2442            0.0000000000
     32227      2643  TIP3      OH2            -0.9617839460       33.2093370651       36.3020180482  TIP3      2443            0.0000000000
     32228      2643  TIP3      H1             -1.1194416252       32.2500649380       36.2830818739  TIP3      2443            0.0000000000
     32229      2643  TIP3      H2             -1.8275635361       33.5004191635       36.6841714807  TIP3      2443            0.0000000000
     32230      2644  TIP3      OH2            -9.9193115489       32.5281960640       34.9212837212  TIP3      2444            0.0000000000
     32231      2644  TIP3      H1             -9.7683266467       33.4188106878       35.3220724090  TIP3      2444            0.0000000000
     32232      2644  TIP3      H2            -10.8150960524       32.2932906107       35.2318584223  TIP3      2444            0.0000000000
     32233      2645  TIP3      OH2            -9.0113290989       36.7631997835       24.7262297286  TIP3      2445            0.0000000000
     32234      2645  TIP3      H1             -8.9949091283       36.9737785331       23.7829239878  TIP3      2445            0.0000000000
     32235      2645  TIP3      H2             -9.4754446433       37.5193621713       25.1058925488  TIP3      2445            0.0000000000
     32236      2646  TIP3      OH2           -15.4833746666       34.7896496973       26.7829789854  TIP3      2446            0.0000000000
     32237      2646  TIP3      H1            -15.1317466591       34.7357982472       27.7021500579  TIP3      2446            0.0000000000
     32238      2646  TIP3      H2            -16.2341596898       34.1841993236       26.8703548609  TIP3      2446            0.0000000000
     32239      2647  TIP3      OH2            -6.7896198224       35.3002652992       24.5130523011  TIP3      2447            0.0000000000
     32240      2647  TIP3      H1             -7.6084978047       35.7095145397       24.8603790326  TIP3      2447            0.0000000000
     32241      2647  TIP3      H2             -6.6698302468       34.4871345730       25.0181321768  TIP3      2447            0.0000000000
     32242      2648  TIP3      OH2            -3.7149929012       24.4882495753       36.4519832070  TIP3      2448            0.0000000000
     32243      2648  TIP3      H1             -4.2470430390       24.9368743490       35.7633286947  TIP3      2448            0.0000000000
     32244      2648  TIP3      H2             -3.7921785871       23.5525773839       36.1714667716  TIP3      2448            0.0000000000
     32245      2649  TIP3      OH2           -16.1900365774       30.9124024773       34.5762763563  TIP3      2449            0.0000000000
     32246      2649  TIP3      H1            -16.2236275783       30.5474685070       35.4938426293  TIP3      2449            0.0000000000
     32247      2649  TIP3      H2            -17.0943458647       30.7133055547       34.2471153481  TIP3      2449            0.0000000000
     32248      2650  TIP3      OH2           -13.6585061943       19.6931254836       30.5524660144  TIP3      2450            0.0000000000
     32249      2650  TIP3      H1            -14.5135078674       19.6550823018       30.0833986103  TIP3      2450            0.0000000000
     32250      2650  TIP3      H2            -13.9277517825       20.2132082995       31.3414590137  TIP3      2450            0.0000000000
     32251      2651  TIP3      OH2            -8.7874141271       19.1279425298       33.8463713840  TIP3      2451            0.0000000000
     32252      2651  TIP3      H1             -8.4820358273       18.6940079136       34.6737441843  TIP3      2451            0.0000000000
     32253      2651  TIP3      H2             -9.7571365155       19.1841530304       33.9642680174  TIP3      2451            0.0000000000
     32254      2652  TIP3      OH2            -6.3012916653       23.2701294617       34.5696815013  TIP3      2452            0.0000000000
     32255      2652  TIP3      H1             -6.7107244249       22.9379203088       35.4145263710  TIP3      2452            0.0000000000
     32256      2652  TIP3      H2             -6.5044404825       24.2122786598       34.5958066837  TIP3      2452            0.0000000000
     32257      2653  TIP3      OH2           -13.5745194074       24.3965933265       31.6865735134  TIP3      2453            0.0000000000
     32258      2653  TIP3      H1            -14.3345834894       24.4081218698       32.3131214637  TIP3      2453            0.0000000000
     32259      2653  TIP3      H2            -13.5457464396       25.3463284936       31.4241153059  TIP3      2453            0.0000000000
     32260      2654  TIP3      OH2           -13.8873812785       24.5601209922       27.0474297004  TIP3      2454            0.0000000000
     32261      2654  TIP3      H1            -14.8216846931       24.4569610492       26.7730297015  TIP3      2454            0.0000000000
     32262      2654  TIP3      H2            -13.4116011644       24.6227960822       26.1909242889  TIP3      2454            0.0000000000
     32263      2655  TIP3      OH2            -8.0721381799       25.0125823277       25.4278024937  TIP3      2455            0.0000000000
     32264      2655  TIP3      H1             -8.3362265517       25.8975223047       25.1084087302  TIP3      2455            0.0000000000
     32265      2655  TIP3      H2             -7.3752114996       24.7756489116       24.7914203786  TIP3      2455            0.0000000000
     32266      2656  TIP3      OH2            -9.2433958576       25.3759402934       36.7148553866  TIP3      2456            0.0000000000
     32267      2656  TIP3      H1             -9.7492877883       24.6450902351       37.1413812701  TIP3      2456            0.0000000000
     32268      2656  TIP3      H2             -8.4540754546       25.3798702457       37.2833531763  TIP3      2456            0.0000000000
     32269      2657  TIP3      OH2            -7.1863052254       24.5047006474       28.3963306307  TIP3      2457            0.0000000000
     32270      2657  TIP3      H1             -7.1194731332       25.4289812217       28.0981384086  TIP3      2457            0.0000000000
     32271      2657  TIP3      H2             -7.3145061324       24.0817966171       27.5332685463  TIP3      2457            0.0000000000
     32272      2658  TIP3      OH2           -15.9102147212       24.4372790043       33.0198213110  TIP3      2458            0.0000000000
     32273      2658  TIP3      H1            -15.6940136979       24.8873607301       33.8562881609  TIP3      2458            0.0000000000
     32274      2658  TIP3      H2            -16.2517793404       23.5765835803       33.3390614286  TIP3      2458            0.0000000000
     32275      2659  TIP3      OH2           -19.1194856365       21.8279075557       27.7851422811  TIP3      2459            0.0000000000
     32276      2659  TIP3      H1            -18.3757845201       21.8638473063       28.3982354512  TIP3      2459            0.0000000000
     32277      2659  TIP3      H2            -18.6939441023       21.9120853891       26.9079987865  TIP3      2459            0.0000000000
     32278      2660  TIP3      OH2           -18.4712811466       22.8729433153       22.7778772842  TIP3      2460            0.0000000000
     32279      2660  TIP3      H1            -17.6269457662       22.6100275729       23.1724684844  TIP3      2460            0.0000000000
     32280      2660  TIP3      H2            -18.8946200424       23.4005193637       23.4812607164  TIP3      2460            0.0000000000
     32281      2661  TIP3      OH2            -7.9854626386       26.0189627377       32.6175845727  TIP3      2461            0.0000000000
     32282      2661  TIP3      H1             -7.4000779396       25.3425472581       32.2191798697  TIP3      2461            0.0000000000
     32283      2661  TIP3      H2             -8.5902829799       25.4875078916       33.1907773126  TIP3      2461            0.0000000000
     32284      2662  TIP3      OH2           -10.7667545675       22.3466901033       27.8928400676  TIP3      2462            0.0000000000
     32285      2662  TIP3      H1            -11.6356395884       21.9891822774       28.1224250112  TIP3      2462            0.0000000000
     32286      2662  TIP3      H2            -10.1612444191       21.6117271717       28.1782985441  TIP3      2462            0.0000000000
     32287      2663  TIP3      OH2           -16.5331118087       23.6355826220       26.8472272316  TIP3      2463            0.0000000000
     32288      2663  TIP3      H1            -17.0886679615       24.0359595757       26.1412886351  TIP3      2463            0.0000000000
     32289      2663  TIP3      H2            -16.2162632552       22.8130173466       26.4146817572  TIP3      2463            0.0000000000
     32290      2664  TIP3      OH2           -12.8375535432       24.0511540208       24.5140151220  TIP3      2464            0.0000000000
     32291      2664  TIP3      H1            -11.8792295522       23.9083848741       24.5547268186  TIP3      2464            0.0000000000
     32292      2664  TIP3      H2            -12.9561070955       24.3485831055       23.5819961433  TIP3      2464            0.0000000000
     32293      2665  TIP3      OH2           -13.2905323472       24.4082586933       21.9229991922  TIP3      2465            0.0000000000
     32294      2665  TIP3      H1            -14.2559132201       24.5567011851       21.8731612608  TIP3      2465            0.0000000000
     32295      2665  TIP3      H2            -12.9649535827       25.1969505591       21.4507392435  TIP3      2465            0.0000000000
     32296      2666  TIP3      OH2            -4.0284421043       36.9572138391       37.2613744920  TIP3      2466            0.0000000000
     32297      2666  TIP3      H1             -3.8997393049       37.2634887902       36.3437868832  TIP3      2466            0.0000000000
     32298      2666  TIP3      H2             -3.1164273334       37.0748744473       37.6458113816  TIP3      2466            0.0000000000
     32299      2667  TIP3      OH2           -15.8900888312       29.3421962272       36.9041512021  TIP3      2467            0.0000000000
     32300      2667  TIP3      H1            -15.2428516866       29.5692473581       37.5968858104  TIP3      2467            0.0000000000
     32301      2667  TIP3      H2            -16.6976249930       29.1587465958       37.4254344435  TIP3      2467            0.0000000000
     32302      2668  TIP3      OH2           -10.0664702694       24.9049984233       29.6466808441  TIP3      2468            0.0000000000
     32303      2668  TIP3      H1             -9.4227705402       24.5179883240       29.0443012454  TIP3      2468            0.0000000000
     32304      2668  TIP3      H2            -10.7314153368       24.1973585636       29.7429901464  TIP3      2468            0.0000000000
     32305      2669  TIP3      OH2           -15.4872013900       21.2603269533       25.8475138217  TIP3      2469            0.0000000000
     32306      2669  TIP3      H1            -15.9076360837       20.5059554373       26.3225605637  TIP3      2469            0.0000000000
     32307      2669  TIP3      H2            -14.8686572886       20.7853728324       25.2689090133  TIP3      2469            0.0000000000
     32308      2670  TIP3      OH2           -11.3722854855       23.0134194122       32.1859704511  TIP3      2470            0.0000000000
     32309      2670  TIP3      H1            -12.1231004913       23.6209448715       31.9954450953  TIP3      2470            0.0000000000
     32310      2670  TIP3      H2            -10.6594991871       23.6351205557       32.3855520964  TIP3      2470            0.0000000000
     32311      2671  TIP3      OH2           -10.6661714982       29.5480896390       23.6011741603  TIP3      2471            0.0000000000
     32312      2671  TIP3      H1            -11.3194574696       28.8862305788       23.3377756012  TIP3      2471            0.0000000000
     32313      2671  TIP3      H2            -11.0518251821       29.8514912496       24.4574025651  TIP3      2471            0.0000000000
     32314      2672  TIP3      OH2            -3.1266369996       28.9607861334       32.4358178114  TIP3      2472            0.0000000000
     32315      2672  TIP3      H1             -2.6667240850       29.4400459391       31.7033018769  TIP3      2472            0.0000000000
     32316      2672  TIP3      H2             -4.0147835320       28.9042026693       32.0372366299  TIP3      2472            0.0000000000
     32317      2673  TIP3      OH2            -9.6539497267       29.7947263787       34.8283273566  TIP3      2473            0.0000000000
     32318      2673  TIP3      H1             -9.5984118708       29.4915551210       35.7454106275  TIP3      2473            0.0000000000
     32319      2673  TIP3      H2             -9.6872689501       30.7611845872       34.9548056175  TIP3      2473            0.0000000000
     32320      2674  TIP3      OH2            -5.7768080168       24.0473378641       23.9492532746  TIP3      2474            0.0000000000
     32321      2674  TIP3      H1             -5.2750157194       23.3133216956       23.5488979528  TIP3      2474            0.0000000000
     32322      2674  TIP3      H2             -5.5278935821       24.8463744355       23.4731521803  TIP3      2474            0.0000000000
     32323      2675  TIP3      OH2           -15.4294400232       29.0960709353       29.1192378997  TIP3      2475            0.0000000000
     32324      2675  TIP3      H1            -14.8813711039       28.8608079286       28.3404454682  TIP3      2475            0.0000000000
     32325      2675  TIP3      H2            -15.2992153068       28.3297862890       29.6987668122  TIP3      2475            0.0000000000
     32326      2676  TIP3      OH2            -9.0805979861       31.4982159284       22.7820239578  TIP3      2476            0.0000000000
     32327      2676  TIP3      H1             -9.2522196395       31.8545689326       23.6606854986  TIP3      2476            0.0000000000
     32328      2676  TIP3      H2             -9.5851824195       30.6482731757       22.8606003218  TIP3      2476            0.0000000000
     32329      2677  TIP3      OH2           -18.5033340554       27.2429633106       34.8221565039  TIP3      2477            0.0000000000
     32330      2677  TIP3      H1            -18.6985101695       26.6654636048       35.5871111174  TIP3      2477            0.0000000000
     32331      2677  TIP3      H2            -19.0262040655       26.8430850386       34.1078373491  TIP3      2477            0.0000000000
     32332      2678  TIP3      OH2           -11.6636636967       26.8106052629       36.6371267001  TIP3      2478            0.0000000000
     32333      2678  TIP3      H1            -12.1318929768       26.1418501553       36.1243772465  TIP3      2478            0.0000000000
     32334      2678  TIP3      H2            -10.7380524044       26.4823568428       36.5976248064  TIP3      2478            0.0000000000
     32335      2679  TIP3      OH2            -6.6545200350       32.0217471904       35.1080499192  TIP3      2479            0.0000000000
     32336      2679  TIP3      H1             -7.4582124700       32.2088658782       34.6044201872  TIP3      2479            0.0000000000
     32337      2679  TIP3      H2             -6.8169310113       32.5436581690       35.9138396464  TIP3      2479            0.0000000000
     32338      2680  TIP3      OH2            -1.2375697507       24.8525017285       23.2320995616  TIP3      2480            0.0000000000
     32339      2680  TIP3      H1             -1.8766035128       24.6138779116       22.5158507102  TIP3      2480            0.0000000000
     32340      2680  TIP3      H2             -1.1145926941       25.7931430502       22.9891394568  TIP3      2480            0.0000000000
     32341      2681  TIP3      OH2            -1.1150757505       30.4003412104       35.9438819590  TIP3      2481            0.0000000000
     32342      2681  TIP3      H1             -2.0371847692       30.5112390962       35.6184652477  TIP3      2481            0.0000000000
     32343      2681  TIP3      H2             -0.6113520858       30.3102203143       35.1026425704  TIP3      2481            0.0000000000
     32344      2682  TIP3      OH2            -2.8471748465       32.9682645827       23.8272883588  TIP3      2482            0.0000000000
     32345      2682  TIP3      H1             -3.6260567395       32.3892598009       23.8086789769  TIP3      2482            0.0000000000
     32346      2682  TIP3      H2             -2.6603393532       33.0747327845       22.8818793296  TIP3      2482            0.0000000000
     32347      2683  TIP3      OH2            -5.5575051210       28.1664130831       30.6695650313  TIP3      2483            0.0000000000
     32348      2683  TIP3      H1             -6.4768774204       27.8757492728       30.5592186056  TIP3      2483            0.0000000000
     32349      2683  TIP3      H2             -5.0731012499       27.4572403566       30.1997792366  TIP3      2483            0.0000000000
     32350      2684  TIP3      OH2           -13.2262091929       32.3437454789       26.9156605269  TIP3      2484            0.0000000000
     32351      2684  TIP3      H1            -12.8333569659       33.1876129303       26.5939924051  TIP3      2484            0.0000000000
     32352      2684  TIP3      H2            -14.1345535093       32.4076542125       26.5668431149  TIP3      2484            0.0000000000
     32353      2685  TIP3      OH2           -11.7677110023       30.1025985830       26.1326754776  TIP3      2485            0.0000000000
     32354      2685  TIP3      H1            -12.2234991985       30.9272124579       26.3953524446  TIP3      2485            0.0000000000
     32355      2685  TIP3      H2            -12.2378321796       29.4310784013       26.6615462406  TIP3      2485            0.0000000000
     32356      2686  TIP3      OH2           -11.2543143762       34.1132563848       33.1905615936  TIP3      2486            0.0000000000
     32357      2686  TIP3      H1            -10.7212264023       34.9056427321       32.9735140083  TIP3      2486            0.0000000000
     32358      2686  TIP3      H2            -10.5956960529       33.5780514839       33.6806295036  TIP3      2486            0.0000000000
     32359      2687  TIP3      OH2           -12.8031195156       34.8142438836       25.8031869165  TIP3      2487            0.0000000000
     32360      2687  TIP3      H1            -13.7353911818       35.0012933499       26.0385283821  TIP3      2487            0.0000000000
     32361      2687  TIP3      H2            -12.3389585537       35.5694675112       26.2173931690  TIP3      2487            0.0000000000
     32362      2688  TIP3      OH2            -8.1710877513       30.1780572935       32.4314474660  TIP3      2488            0.0000000000
     32363      2688  TIP3      H1             -8.6411281883       29.8829072637       33.2495160288  TIP3      2488            0.0000000000
     32364      2688  TIP3      H2             -7.7192194480       29.3607921233       32.1556311311  TIP3      2488            0.0000000000
     32365      2689  TIP3      OH2            -5.3148063223       31.7917688500       21.8348557767  TIP3      2489            0.0000000000
     32366      2689  TIP3      H1             -5.2152858033       30.9569997628       22.3304148866  TIP3      2489            0.0000000000
     32367      2689  TIP3      H2             -6.0727001471       31.5609995261       21.2557293090  TIP3      2489            0.0000000000
     32368      2690  TIP3      OH2            -5.1321791871       34.8110122175       34.9681343792  TIP3      2490            0.0000000000
     32369      2690  TIP3      H1             -5.9157233995       34.2988104208       34.6731517297  TIP3      2490            0.0000000000
     32370      2690  TIP3      H2             -4.9225923622       35.4156757652       34.2247999783  TIP3      2490            0.0000000000
     32371      2691  TIP3      OH2           -16.7312331705       22.0057837199       34.2328132682  TIP3      2491            0.0000000000
     32372      2691  TIP3      H1            -17.4583800444       22.5527020934       34.5818687577  TIP3      2491            0.0000000000
     32373      2691  TIP3      H2            -16.8310902411       21.2127286162       34.7766755433  TIP3      2491            0.0000000000
     32374      2692  TIP3      OH2            -4.6546621419       29.7331986829       23.7230806983  TIP3      2492            0.0000000000
     32375      2692  TIP3      H1             -4.6403665765       28.8824571889       24.2194384769  TIP3      2492            0.0000000000
     32376      2692  TIP3      H2             -3.6954346687       29.8362771364       23.5257949267  TIP3      2492            0.0000000000
     32377      2693  TIP3      OH2           -17.1633311623       33.5113129350       32.8218383408  TIP3      2493            0.0000000000
     32378      2693  TIP3      H1            -16.6916755111       32.6849611961       32.6542162724  TIP3      2493            0.0000000000
     32379      2693  TIP3      H2            -16.5640698534       33.9156279022       33.4748402320  TIP3      2493            0.0000000000
     32380      2694  TIP3      OH2           -16.3288456414       28.9833771218       23.0779996917  TIP3      2494            0.0000000000
     32381      2694  TIP3      H1            -16.9900321001       29.5743426707       23.5059595599  TIP3      2494            0.0000000000
     32382      2694  TIP3      H2            -15.7281118409       29.6261118573       22.6714577715  TIP3      2494            0.0000000000
     32383      2695  TIP3      OH2            -7.8310678799       21.8677249054       32.9357267363  TIP3      2495            0.0000000000
     32384      2695  TIP3      H1             -7.0481785416       22.0376139382       33.4790038376  TIP3      2495            0.0000000000
     32385      2695  TIP3      H2             -8.2629254473       21.1249524585       33.4067328729  TIP3      2495            0.0000000000
     32386      2696  TIP3      OH2           -10.2457460810       23.1276501210       25.2471753418  TIP3      2496            0.0000000000
     32387      2696  TIP3      H1             -9.4355297338       23.6739986376       25.2780016701  TIP3      2496            0.0000000000
     32388      2696  TIP3      H2            -10.3462022767       22.8380390560       26.1811547040  TIP3      2496            0.0000000000
     32389      2697  TIP3      OH2            -9.2384535242       24.3060112040       34.1959381955  TIP3      2497            0.0000000000
     32390      2697  TIP3      H1             -9.1509082076       24.5704464902       35.1406864077  TIP3      2497            0.0000000000
     32391      2697  TIP3      H2             -8.7290501987       23.4754548788       34.1548577753  TIP3      2497            0.0000000000
     32392      2698  TIP3      OH2           -13.6085032292       21.5269546995       22.9769920828  TIP3      2498            0.0000000000
     32393      2698  TIP3      H1            -13.4153035858       22.4158632110       23.3084288886  TIP3      2498            0.0000000000
     32394      2698  TIP3      H2            -12.7029131421       21.1963987178       22.8237976899  TIP3      2498            0.0000000000
     32395      2699  TIP3      OH2            -3.8157486131       22.1417877222       35.1147225860  TIP3      2499            0.0000000000
     32396      2699  TIP3      H1             -4.6599100295       22.5124451092       34.7732773973  TIP3      2499            0.0000000000
     32397      2699  TIP3      H2             -3.2269141026       22.1533188085       34.3469185253  TIP3      2499            0.0000000000
     32398      2700  TIP3      OH2            -4.6792920272       25.8394863107       29.3747610373  TIP3      2500            0.0000000000
     32399      2700  TIP3      H1             -5.3938230117       25.2539176351       29.6664165167  TIP3      2500            0.0000000000
     32400      2700  TIP3      H2             -3.8779976327       25.3349845205       29.6448737739  TIP3      2500            0.0000000000
     32401      2701  TIP3      OH2           -15.6763185878       25.7049346439       21.4184384028  TIP3      2501            0.0000000000
     32402      2701  TIP3      H1            -15.9554390052       26.5493756500       21.0071242268  TIP3      2501            0.0000000000
     32403      2701  TIP3      H2            -16.5048159435       25.2484459856       21.5782680879  TIP3      2501            0.0000000000
     32404      2702  TIP3      OH2            -3.6506779258       35.5366074415       31.0833274922  TIP3      2502            0.0000000000
     32405      2702  TIP3      H1             -3.7054597642       35.9141328028       30.1762043733  TIP3      2502            0.0000000000
     32406      2702  TIP3      H2             -2.6711813837       35.5049328305       31.1382612478  TIP3      2502            0.0000000000
     32407      2703  TIP3      OH2           -16.2170555023       19.1670049317       29.8203122979  TIP3      2503            0.0000000000
     32408      2703  TIP3      H1            -16.2461391064       19.0148118548       28.8515337651  TIP3      2503            0.0000000000
     32409      2703  TIP3      H2            -16.5355406272       18.3004779561       30.1549382426  TIP3      2503            0.0000000000
     32410      2704  TIP3      OH2           -17.5720145322       32.9307823143       25.3490265069  TIP3      2504            0.0000000000
     32411      2704  TIP3      H1            -18.2502524162       33.3268842727       25.9122312357  TIP3      2504            0.0000000000
     32412      2704  TIP3      H2            -17.5891438781       33.5375722550       24.5785932407  TIP3      2504            0.0000000000
     32413      2705  TIP3      OH2           -18.1559422815       35.8297042728       37.0821919767  TIP3      2505            0.0000000000
     32414      2705  TIP3      H1            -17.2555088881       35.8180416523       37.4241045100  TIP3      2505            0.0000000000
     32415      2705  TIP3      H2            -18.4520448285       34.9074457239       37.2120438157  TIP3      2505            0.0000000000
     32416      2706  TIP3      OH2           -13.2032902946       34.1235473434       38.6538669044  TIP3      2506            0.0000000000
     32417      2706  TIP3      H1            -12.2620846489       34.2754520988       38.5690499573  TIP3      2506            0.0000000000
     32418      2706  TIP3      H2            -13.5191367192       33.9474738573       37.7416989379  TIP3      2506            0.0000000000
     32419      2707  TIP3      OH2            -7.1158365923       33.2265983629       37.5160606303  TIP3      2507            0.0000000000
     32420      2707  TIP3      H1             -7.4349408633       32.3232116738       37.7793002876  TIP3      2507            0.0000000000
     32421      2707  TIP3      H2             -6.3610888525       33.3153017556       38.1263110213  TIP3      2507            0.0000000000
     32422      2708  TIP3      OH2            -4.1664894839       33.7448272080       20.1668291512  TIP3      2508            0.0000000000
     32423      2708  TIP3      H1             -4.4947402074       33.0261531602       20.7433390659  TIP3      2508            0.0000000000
     32424      2708  TIP3      H2             -3.1962044696       33.5622978798       20.2156747783  TIP3      2508            0.0000000000
     32425      2709  TIP3      OH2           -18.5015535746       29.4353282374       38.0240450848  TIP3      2509            0.0000000000
     32426      2709  TIP3      H1            -18.7855158906       28.5027037390       38.0293703024  TIP3      2509            0.0000000000
     32427      2709  TIP3      H2            -19.0394630013       29.7726581943       37.2724108085  TIP3      2509            0.0000000000
     32428      2710  TIP3      OH2           -11.5950601247       29.4221203787       37.1701608058  TIP3      2510            0.0000000000
     32429      2710  TIP3      H1            -11.8571621530       29.9988779321       36.4147961385  TIP3      2510            0.0000000000
     32430      2710  TIP3      H2            -11.8052150624       28.5162736858       36.8468406850  TIP3      2510            0.0000000000
     32431      2711  TIP3      OH2            -7.5742082646       30.8986092111       20.6322120567  TIP3      2511            0.0000000000
     32432      2711  TIP3      H1             -8.1708012427       31.3282752291       21.2843023492  TIP3      2511            0.0000000000
     32433      2711  TIP3      H2             -7.9166882069       31.2129694059       19.7883832024  TIP3      2511            0.0000000000
     32434      2712  TIP3      OH2            -5.9040443316       29.2538053889       34.8837241174  TIP3      2512            0.0000000000
     32435      2712  TIP3      H1             -5.0496899097       29.7456357586       34.8237566906  TIP3      2512            0.0000000000
     32436      2712  TIP3      H2             -6.4790322681       30.0362784154       35.0113702503  TIP3      2512            0.0000000000
     32437      2713  TIP3      OH2           -17.1551742212       26.6822372072       37.8083883608  TIP3      2513            0.0000000000
     32438      2713  TIP3      H1            -16.6004489446       25.8930316726       37.8095423308  TIP3      2513            0.0000000000
     32439      2713  TIP3      H2            -16.8201696358       27.1936552903       38.5758901372  TIP3      2513            0.0000000000
     32440      2714  TIP3      OH2           -13.6227047619       25.6753916118       34.3627936978  TIP3      2514            0.0000000000
     32441      2714  TIP3      H1            -14.1218703003       26.5119607036       34.4463134738  TIP3      2514            0.0000000000
     32442      2714  TIP3      H2            -12.8198126516       26.0280260040       33.9243114066  TIP3      2514            0.0000000000
     32443      2715  TIP3      OH2            -7.9580048091       28.3898515217       38.1290625176  TIP3      2515            0.0000000000
     32444      2715  TIP3      H1             -7.4485206487       27.9117634587       37.4554870251  TIP3      2515            0.0000000000
     32445      2715  TIP3      H2             -8.2733432105       27.6843684875       38.7309985546  TIP3      2515            0.0000000000
     32446      2716  TIP3      OH2           -12.7559334919       23.3364837652       35.4587570066  TIP3      2516            0.0000000000
     32447      2716  TIP3      H1            -12.7243077927       22.6469176495       34.7541172797  TIP3      2516            0.0000000000
     32448      2716  TIP3      H2            -12.8584520831       24.1608637132       34.9249381234  TIP3      2516            0.0000000000
     32449      2717  TIP3      OH2           -12.5494077149       21.2533867913       33.6574880660  TIP3      2517            0.0000000000
     32450      2717  TIP3      H1            -12.0172609629       21.8264315588       33.0372948008  TIP3      2517            0.0000000000
     32451      2717  TIP3      H2            -13.3867521715       21.1906034712       33.1531428583  TIP3      2517            0.0000000000
     32452      2718  TIP3      OH2           -11.2023828892       26.9003948771       33.3168284771  TIP3      2518            0.0000000000
     32453      2718  TIP3      H1            -10.2938998184       27.1887236034       33.4517430176  TIP3      2518            0.0000000000
     32454      2718  TIP3      H2            -11.6333303107       27.7231535657       33.0071392302  TIP3      2518            0.0000000000
     32455      2719  TIP3      OH2            -6.6483510500       24.4135310620       38.2834780510  TIP3      2519            0.0000000000
     32456      2719  TIP3      H1             -6.3294737492       23.5035339778       38.2437890692  TIP3      2519            0.0000000000
     32457      2719  TIP3      H2             -5.9176070875       24.9043365081       38.6795734969  TIP3      2519            0.0000000000
     32458      2720  TIP3      OH2            -5.1768919934       27.7087521804       36.9871004365  TIP3      2520            0.0000000000
     32459      2720  TIP3      H1             -5.4951599935       28.2749981914       36.2589578690  TIP3      2520            0.0000000000
     32460      2720  TIP3      H2             -4.2406774050       27.6167279592       36.7442912938  TIP3      2520            0.0000000000
     32461      2721  TIP3      OH2           -14.2592813453       24.0525308390       37.6353005276  TIP3      2521            0.0000000000
     32462      2721  TIP3      H1            -15.1585506328       23.6894194824       37.4748192377  TIP3      2521            0.0000000000
     32463      2721  TIP3      H2            -13.7666731985       23.7394052675       36.8391287450  TIP3      2521            0.0000000000
     32464      2722  TIP3      OH2           -11.5759131095       18.8122511745       33.6924186100  TIP3      2522            0.0000000000
     32465      2722  TIP3      H1            -11.9215979499       19.7322891223       33.7495070635  TIP3      2522            0.0000000000
     32466      2722  TIP3      H2            -12.2890954665       18.3879149872       33.2128177728  TIP3      2522            0.0000000000
     32467      2723  TIP3      OH2           -10.6964819290       23.1743469479       37.7326033656  TIP3      2523            0.0000000000
     32468      2723  TIP3      H1            -11.3097310131       22.8743832440       38.4342115000  TIP3      2523            0.0000000000
     32469      2723  TIP3      H2            -11.2565317501       23.0189764923       36.9512433702  TIP3      2523            0.0000000000
     32470      2724  TIP3      OH2            -7.8606054476       22.4132572660       36.6056754348  TIP3      2524            0.0000000000
     32471      2724  TIP3      H1             -8.7859420158       22.3871737996       36.8856719418  TIP3      2524            0.0000000000
     32472      2724  TIP3      H2             -7.4369501004       21.9240069949       37.3512854015  TIP3      2524            0.0000000000
     32473      2725  TIP3      OH2            -6.4315110230       20.9906771177       38.3549842036  TIP3      2525            0.0000000000
     32474      2725  TIP3      H1             -6.3634270587       20.0130893569       38.3513251132  TIP3      2525            0.0000000000
     32475      2725  TIP3      H2             -6.4915029657       21.1902106997       39.3137353794  TIP3      2525            0.0000000000
     32476      2726  TIP3      OH2           -16.4487626933       22.4468860788       37.8001601423  TIP3      2526            0.0000000000
     32477      2726  TIP3      H1            -16.0475677200       21.6528423965       37.4317807747  TIP3      2526            0.0000000000
     32478      2726  TIP3      H2            -16.6593023326       22.1710554956       38.7234084878  TIP3      2526            0.0000000000
     32479      2727  TIP3      OH2           -11.5808258892       18.6100760125       36.4103715323  TIP3      2527            0.0000000000
     32480      2727  TIP3      H1            -10.9039356797       17.9165144465       36.5429057852  TIP3      2527            0.0000000000
     32481      2727  TIP3      H2            -11.5803030232       18.5912897907       35.4278778109  TIP3      2527            0.0000000000
     32482      2728  TIP3      OH2           -11.8660872498       19.5972243926       38.9689564502  TIP3      2528            0.0000000000
     32483      2728  TIP3      H1            -11.7548557447       19.3279839518       38.0258525556  TIP3      2528            0.0000000000
     32484      2728  TIP3      H2            -12.1290561481       20.5378759032       38.8849586461  TIP3      2528            0.0000000000
     32485      2729  TIP3      OH2           -11.7307175641       36.4228436178       21.7855199752  TIP3      2529            0.0000000000
     32486      2729  TIP3      H1            -10.8559166294       36.8328661391       21.6692304148  TIP3      2529            0.0000000000
     32487      2729  TIP3      H2            -12.2920681094       37.0196858476       21.2682371781  TIP3      2529            0.0000000000
     32488      2730  TIP3      OH2           -19.3354778594       36.6962896682       26.1517469810  TIP3      2530            0.0000000000
     32489      2730  TIP3      H1            -20.2137298955       36.4204341646       25.8384786328  TIP3      2530            0.0000000000
     32490      2730  TIP3      H2            -19.3251315464       36.2392560877       27.0107259599  TIP3      2530            0.0000000000
     32491      2731  TIP3      OH2           -18.4971485845       34.7743630970       28.3308038219  TIP3      2531            0.0000000000
     32492      2731  TIP3      H1            -19.1419018410       34.1280091395       28.6691570252  TIP3      2531            0.0000000000
     32493      2731  TIP3      H2            -17.9887398603       34.9465680516       29.1505666372  TIP3      2531            0.0000000000
     32494      2732  TIP3      OH2            -0.9421030565       35.8573565498       30.7457955994  TIP3      2532            0.0000000000
     32495      2732  TIP3      H1             -0.7691563861       36.4571032709       31.5099603828  TIP3      2532            0.0000000000
     32496      2732  TIP3      H2             -0.0781955292       35.8223577751       30.3108937155  TIP3      2532            0.0000000000
     32497      2733  TIP3      OH2            -1.5530031356       35.0522767906       34.2863857741  TIP3      2533            0.0000000000
     32498      2733  TIP3      H1             -1.7770422969       34.4020594293       33.5908574630  TIP3      2533            0.0000000000
     32499      2733  TIP3      H2             -1.2496622639       34.4142871063       34.9653527628  TIP3      2533            0.0000000000
     32500      2734  TIP3      OH2            -2.9153600966       31.1959919034       38.6231492935  TIP3      2534            0.0000000000
     32501      2734  TIP3      H1             -3.7513763736       31.0748289513       39.1218544208  TIP3      2534            0.0000000000
     32502      2734  TIP3      H2             -2.5827328455       32.0323578033       39.0058335099  TIP3      2534            0.0000000000
     32503      2735  TIP3      OH2            -1.9050858877       29.5164915067       23.8490175631  TIP3      2535            0.0000000000
     32504      2735  TIP3      H1             -1.0830955830       29.9771843043       24.1075832664  TIP3      2535            0.0000000000
     32505      2735  TIP3      H2             -1.9855579063       28.8999231493       24.5957787832  TIP3      2535            0.0000000000
     32506      2736  TIP3      OH2            -1.3137992127       27.4975854428       25.9286330634  TIP3      2536            0.0000000000
     32507      2736  TIP3      H1             -2.1489190637       27.0565765222       26.1845679490  TIP3      2536            0.0000000000
     32508      2736  TIP3      H2             -0.8728498886       27.6036023308       26.7845654148  TIP3      2536            0.0000000000
     32509      2737  TIP3      OH2            -1.5612745713       30.0291239948       30.6431143113  TIP3      2537            0.0000000000
     32510      2737  TIP3      H1             -0.8797940547       29.3502889744       30.4746728679  TIP3      2537            0.0000000000
     32511      2737  TIP3      H2             -1.0935746779       30.8599809505       30.4247851288  TIP3      2537            0.0000000000
     32512      2738  TIP3      OH2            -2.9097379834       32.9310965951       33.2564253775  TIP3      2538            0.0000000000
     32513      2738  TIP3      H1             -3.6503491814       33.3713753849       33.6833386014  TIP3      2538            0.0000000000
     32514      2738  TIP3      H2             -3.2799247915       32.8222029412       32.3368818001  TIP3      2538            0.0000000000
     32515      2739  TIP3      OH2            -1.1176747153       27.5077998757       22.0674786241  TIP3      2539            0.0000000000
     32516      2739  TIP3      H1             -1.5024892763       27.8941896702       21.2454088250  TIP3      2539            0.0000000000
     32517      2739  TIP3      H2             -1.3350318971       28.2438199159       22.6754573757  TIP3      2539            0.0000000000
     32518      2740  TIP3      OH2            -2.6485022586       24.2495018419       21.0649373003  TIP3      2540            0.0000000000
     32519      2740  TIP3      H1             -2.5317434081       24.8498808907       20.3135122236  TIP3      2540            0.0000000000
     32520      2740  TIP3      H2             -2.6976254223       23.3632842264       20.6852009174  TIP3      2540            0.0000000000
     32521      2741  TIP3      OH2            -3.4707136329       26.0172881976       26.6977335934  TIP3      2541            0.0000000000
     32522      2741  TIP3      H1             -3.3979545800       25.0983153122       26.4073324549  TIP3      2541            0.0000000000
     32523      2741  TIP3      H2             -3.6427239651       25.9543972444       27.6606852367  TIP3      2541            0.0000000000
     32524      2742  TIP3      OH2           -18.6011746952       28.2585060740       30.7707258026  TIP3      2542            0.0000000000
     32525      2742  TIP3      H1            -18.5240432833       27.9045099515       29.8487850951  TIP3      2542            0.0000000000
     32526      2742  TIP3      H2            -17.7198467505       27.9924481341       31.1219694883  TIP3      2542            0.0000000000
     32527      2743  TIP3      OH2            -2.3665889842       27.8435182224       36.2624204981  TIP3      2543            0.0000000000
     32528      2743  TIP3      H1             -1.8241247113       27.0261107144       36.3926838286  TIP3      2543            0.0000000000
     32529      2743  TIP3      H2             -1.6997827393       28.5325282213       36.0945310918  TIP3      2543            0.0000000000
     32530      2744  TIP3      OH2            -1.2579152526       25.4184823844       36.6404294517  TIP3      2544            0.0000000000
     32531      2744  TIP3      H1             -2.1885607679       25.0821189909       36.6066041824  TIP3      2544            0.0000000000
     32532      2744  TIP3      H2             -0.7086324136       24.6248320511       36.8546218930  TIP3      2544            0.0000000000
     32533      2745  TIP3      OH2            -2.7712919502       24.0975546285       30.3706905831  TIP3      2545            0.0000000000
     32534      2745  TIP3      H1             -1.7991519515       24.2150496047       30.5367822634  TIP3      2545            0.0000000000
     32535      2745  TIP3      H2             -3.0940041835       24.0639556136       31.2916542042  TIP3      2545            0.0000000000
     32536      2746  TIP3      OH2            -3.1537183384       24.8154642960       32.9293997285  TIP3      2546            0.0000000000
     32537      2746  TIP3      H1             -3.8977357484       25.1930273277       33.4455004449  TIP3      2546            0.0000000000
     32538      2746  TIP3      H2             -2.5970620783       25.6160964092       32.7798920918  TIP3      2546            0.0000000000
     32539      2747  TIP3      OH2           -18.7332378761       23.0313648252       36.5752674126  TIP3      2547            0.0000000000
     32540      2747  TIP3      H1            -17.9185677532       23.1575412311       37.1075330222  TIP3      2547            0.0000000000
     32541      2747  TIP3      H2            -19.0062545679       22.1316488973       36.8308712783  TIP3      2547            0.0000000000
     32542      2748  TIP3      OH2            -0.7427502057       19.3279812482       38.3901098345  TIP3      2548            0.0000000000
     32543      2748  TIP3      H1             -0.3626029948       18.5699940689       37.9195410056  TIP3      2548            0.0000000000
     32544      2748  TIP3      H2             -0.8521380990       19.9751252524       37.6554967471  TIP3      2548            0.0000000000
     32545      2749  TIP3      OH2           -17.5745466783       21.4676062163       30.3641594875  TIP3      2549            0.0000000000
     32546      2749  TIP3      H1            -17.0729667563       20.6420483436       30.1826319847  TIP3      2549            0.0000000000
     32547      2749  TIP3      H2            -16.8934578126       22.1505279492       30.2152104826  TIP3      2549            0.0000000000
     32548      2750  TIP3      OH2           -19.0780569935       24.5951328941       30.8310118538  TIP3      2550            0.0000000000
     32549      2750  TIP3      H1            -18.4703193829       24.4003423741       30.0864183816  TIP3      2550            0.0000000000
     32550      2750  TIP3      H2            -18.6595714359       25.3909562696       31.1797390043  TIP3      2550            0.0000000000
     32551      2751  TIP3      OH2            -1.3401767338       21.2925548480       36.6493664493  TIP3      2551            0.0000000000
     32552      2751  TIP3      H1             -2.1077288871       21.5758284002       37.2025861483  TIP3      2551            0.0000000000
     32553      2751  TIP3      H2             -1.7927746345       20.7544851744       35.9789640530  TIP3      2551            0.0000000000
     32554      2752  TIP3      OH2            -0.8949530657       20.5880386452       21.5283106329  TIP3      2552            0.0000000000
     32555      2752  TIP3      H1             -0.2157442563       20.2992348433       20.9117399458  TIP3      2552            0.0000000000
     32556      2752  TIP3      H2             -0.4997295118       21.4118225518       21.8684681728  TIP3      2552            0.0000000000
     32557      2753  TIP3      OH2           -19.0396625787       21.1835499540       24.9376285084  TIP3      2553            0.0000000000
     32558      2753  TIP3      H1            -19.9991411510       21.0785063638       25.0388498189  TIP3      2553            0.0000000000
     32559      2753  TIP3      H2            -19.0071915952       21.1145549187       23.9683471892  TIP3      2553            0.0000000000
     32560      2754  TIP3      OH2            -4.3596900524       35.9031135644       26.4975284049  TIP3      2554            0.0000000000
     32561      2754  TIP3      H1             -3.4982640224       35.6078605067       26.1363330620  TIP3      2554            0.0000000000
     32562      2754  TIP3      H2             -4.0805634762       36.3362470669       27.3313793994  TIP3      2554            0.0000000000
     32563      2755  TIP3      OH2           -18.9143902324       19.3893755377       33.2483143037  TIP3      2555            0.0000000000
     32564      2755  TIP3      H1            -19.6694341651       18.8133117931       33.0359698237  TIP3      2555            0.0000000000
     32565      2755  TIP3      H2            -18.9344732108       19.9978640304       32.4850498404  TIP3      2555            0.0000000000
     32566      2756  TIP3      OH2           -16.7360645079       32.5303928722       37.0128944817  TIP3      2556            0.0000000000
     32567      2756  TIP3      H1            -17.5796115190       32.4406459391       36.5499327789  TIP3      2556            0.0000000000
     32568      2756  TIP3      H2            -16.9781834706       32.5223792072       37.9446709338  TIP3      2556            0.0000000000
     32569      2757  TIP3      OH2           -13.9829046870       33.8006266870       33.5924073560  TIP3      2557            0.0000000000
     32570      2757  TIP3      H1            -14.0367401296       34.7819976254       33.4962807461  TIP3      2557            0.0000000000
     32571      2757  TIP3      H2            -13.0076261385       33.7311559053       33.5186356117  TIP3      2557            0.0000000000
     32572      2758  TIP3      OH2            -9.5252408395       34.8171335990       36.2141949051  TIP3      2558            0.0000000000
     32573      2758  TIP3      H1             -9.6241364562       34.6632494327       37.1773684410  TIP3      2558            0.0000000000
     32574      2758  TIP3      H2             -8.7177177003       35.3719394688       36.2080840052  TIP3      2558            0.0000000000
     32575      2759  TIP3      OH2            -7.1312339908       36.6019418366       35.8663779874  TIP3      2559            0.0000000000
     32576      2759  TIP3      H1             -6.3183179943       36.0922924784       35.7045584347  TIP3      2559            0.0000000000
     32577      2759  TIP3      H2             -7.0616459548       36.6724588514       36.8441226383  TIP3      2559            0.0000000000
     32578      2760  TIP3      OH2            -2.2836045412       18.8444854741       34.9496347580  TIP3      2560            0.0000000000
     32579      2760  TIP3      H1             -2.9422005514       19.2225905476       34.3478471043  TIP3      2560            0.0000000000
     32580      2760  TIP3      H2             -2.1891108796       17.9271722533       34.6013499789  TIP3      2560            0.0000000000
     32581      2761  TIP3      OH2           -16.4884637048       37.2938624904       33.3984636075  TIP3      2561            0.0000000000
     32582      2761  TIP3      H1            -17.3392007744       37.2184197188       32.9221023880  TIP3      2561            0.0000000000
     32583      2761  TIP3      H2            -16.7891320478       37.2093720571       34.3141844000  TIP3      2561            0.0000000000
     32584      2762  TIP3      OH2           -14.0990814798       36.3604559511       32.9303884519  TIP3      2562            0.0000000000
     32585      2762  TIP3      H1            -15.0002768170       36.6842080593       33.1981414543  TIP3      2562            0.0000000000
     32586      2762  TIP3      H2            -14.0928307088       36.6705484120       32.0036726362  TIP3      2562            0.0000000000
     32587      2763  TIP3      OH2            -9.1088990686       36.2271454613       31.6013706918  TIP3      2563            0.0000000000
     32588      2763  TIP3      H1             -9.8491692733       36.3320447299       30.9636281217  TIP3      2563            0.0000000000
     32589      2763  TIP3      H2             -9.0834138351       37.1097650856       32.0005896951  TIP3      2563            0.0000000000
     32590      2764  TIP3      OH2            -7.4486420611       34.7199593411       33.1412393016  TIP3      2564            0.0000000000
     32591      2764  TIP3      H1             -8.0985435308       35.3137405787       32.7064227729  TIP3      2564            0.0000000000
     32592      2764  TIP3      H2             -6.6164817250       35.1693343274       32.9174188373  TIP3      2564            0.0000000000
     32593      2765  TIP3      OH2            -4.9031779530       36.9110681190       32.9567091813  TIP3      2565            0.0000000000
     32594      2765  TIP3      H1             -5.2196030761       37.8008028472       32.7456260464  TIP3      2565            0.0000000000
     32595      2765  TIP3      H2             -4.5281263162       36.5988544846       32.0930337376  TIP3      2565            0.0000000000
     32596      2766  TIP3      OH2           -16.8455945446       35.0020216378       30.5769546632  TIP3      2566            0.0000000000
     32597      2766  TIP3      H1            -17.0809411985       34.5975446767       31.4463966170  TIP3      2566            0.0000000000
     32598      2766  TIP3      H2            -16.0485738846       34.4993843669       30.2980387354  TIP3      2566            0.0000000000
     32599      2767  TIP3      OH2           -14.6934820851       34.2942908412       29.2334462470  TIP3      2567            0.0000000000
     32600      2767  TIP3      H1            -14.7421861991       33.3205243290       29.3507322311  TIP3      2567            0.0000000000
     32601      2767  TIP3      H2            -13.8030540261       34.4342259767       29.6285342789  TIP3      2567            0.0000000000
     32602      2768  TIP3      OH2           -12.4290377958       34.2214371670       30.5077814280  TIP3      2568            0.0000000000
     32603      2768  TIP3      H1            -12.2203783059       33.2721513614       30.4235282600  TIP3      2568            0.0000000000
     32604      2768  TIP3      H2            -12.1581511900       34.4272920939       31.4172022456  TIP3      2568            0.0000000000
     32605      2769  TIP3      OH2            -9.4063520564       20.1764118409       28.7078706995  TIP3      2569            0.0000000000
     32606      2769  TIP3      H1            -10.1077099210       19.7133730072       29.2227626245  TIP3      2569            0.0000000000
     32607      2769  TIP3      H2             -8.9527585247       19.4159025838       28.3296365338  TIP3      2569            0.0000000000
     32608      2770  TIP3      OH2            -3.7200849261       18.1556820593       28.6916836275  TIP3      2570            0.0000000000
     32609      2770  TIP3      H1             -2.8922659069       18.5889233420       28.4349129040  TIP3      2570            0.0000000000
     32610      2770  TIP3      H2             -3.9596208391       17.6112417976       27.9195172866  TIP3      2570            0.0000000000
     32611      2771  TIP3      OH2           -16.4252157235       19.0424960886       26.9512842860  TIP3      2571            0.0000000000
     32612      2771  TIP3      H1            -17.2427526526       18.9737032300       26.4321540247  TIP3      2571            0.0000000000
     32613      2771  TIP3      H2            -16.0413979594       18.1434860146       26.7977639169  TIP3      2571            0.0000000000
     32614      2772  TIP3      OH2           -12.9102443271       18.8318908442       26.9430820630  TIP3      2572            0.0000000000
     32615      2772  TIP3      H1            -12.2712534911       19.0040758577       26.2338816030  TIP3      2572            0.0000000000
     32616      2772  TIP3      H2            -12.3995759181       19.0510228664       27.7360805982  TIP3      2572            0.0000000000
     32617      2773  TIP3      OH2           -18.1403140731       34.7710668150       23.4366234988  TIP3      2573            0.0000000000
     32618      2773  TIP3      H1            -19.0951268396       34.7749292429       23.2752767069  TIP3      2573            0.0000000000
     32619      2773  TIP3      H2            -18.0060567029       35.6706454936       23.7669524298  TIP3      2573            0.0000000000
     32620      2774  TIP3      OH2           -15.8372119007       21.3835846762       21.3833361237  TIP3      2574            0.0000000000
     32621      2774  TIP3      H1            -15.9650962133       20.4941065810       21.0302852205  TIP3      2574            0.0000000000
     32622      2774  TIP3      H2            -14.9702212520       21.2949961212       21.8217649239  TIP3      2574            0.0000000000
     32623      2775  TIP3      OH2           -10.9003966103       21.3122304250       23.0186674120  TIP3      2575            0.0000000000
     32624      2775  TIP3      H1            -10.9859054955       20.4514249198       23.4537884790  TIP3      2575            0.0000000000
     32625      2775  TIP3      H2            -10.7678891660       21.9405089700       23.7576713731  TIP3      2575            0.0000000000
     32626      2776  TIP3      OH2            -2.2629766702       35.3485208317       25.1065754604  TIP3      2576            0.0000000000
     32627      2776  TIP3      H1             -2.4558122989       34.4324546580       24.7894752266  TIP3      2576            0.0000000000
     32628      2776  TIP3      H2             -2.4743491248       35.8191437144       24.2695259225  TIP3      2576            0.0000000000
     32629      2777  TIP3      OH2           -17.0437886784       19.4076364815       36.3086004115  TIP3      2577            0.0000000000
     32630      2777  TIP3      H1            -17.1317968674       18.4712868338       36.5806253859  TIP3      2577            0.0000000000
     32631      2777  TIP3      H2            -16.3299220995       19.6512118371       36.9387550426  TIP3      2577            0.0000000000
     32632      2778  TIP3      OH2           -14.8556156641       18.9068967281       38.2367446912  TIP3      2578            0.0000000000
     32633      2778  TIP3      H1            -13.8899163359       18.8308038019       38.1061955107  TIP3      2578            0.0000000000
     32634      2778  TIP3      H2            -15.0033488911       18.0324088349       38.6524932835  TIP3      2578            0.0000000000
     32635      2779  TIP3      OH2            -6.3414900976       18.3404408792       38.1988405105  TIP3      2579            0.0000000000
     32636      2779  TIP3      H1             -6.3581893807       17.6096483427       38.8479467725  TIP3      2579            0.0000000000
     32637      2779  TIP3      H2             -5.4079723104       18.2740726234       37.8807846594  TIP3      2579            0.0000000000
     32638      2780  TIP3      OH2            -3.3319475005       34.1734118467       36.9100437846  TIP3      2580            0.0000000000
     32639      2780  TIP3      H1             -4.1698327884       34.1966659013       36.3959458545  TIP3      2580            0.0000000000
     32640      2780  TIP3      H2             -3.1767858566       35.1214703103       37.0226758307  TIP3      2580            0.0000000000
     32641      2781  TIP3      OH2             2.7055143506       27.1628004772       31.6649915516  TIP3      2581            0.0000000000
     32642      2781  TIP3      H1              2.6450679284       26.3300900685       32.1678633714  TIP3      2581            0.0000000000
     32643      2781  TIP3      H2              3.0457174239       27.7585388158       32.3669086423  TIP3      2581            0.0000000000
     32644      2782  TIP3      OH2            13.7264172768       30.1336385140       28.8236074548  TIP3      2582            0.0000000000
     32645      2782  TIP3      H1             13.5149932723       29.3490050512       29.3653350793  TIP3      2582            0.0000000000
     32646      2782  TIP3      H2             13.7567226026       30.8063102382       29.5106523318  TIP3      2582            0.0000000000
     32647      2783  TIP3      OH2             3.2966637181       31.7811928604       29.8208386626  TIP3      2583            0.0000000000
     32648      2783  TIP3      H1              3.0660311708       30.8394737904       29.6781647828  TIP3      2583            0.0000000000
     32649      2783  TIP3      H2              4.2493671469       31.6622347112       29.9609392842  TIP3      2583            0.0000000000
     32650      2784  TIP3      OH2            -0.0543789184       24.7941186582       25.6947136587  TIP3      2584            0.0000000000
     32651      2784  TIP3      H1             -0.3102261096       25.7342978511       25.6928251912  TIP3      2584            0.0000000000
     32652      2784  TIP3      H2             -0.6366664957       24.4531260357       24.9952656052  TIP3      2584            0.0000000000
     32653      2785  TIP3      OH2             0.9770943071       27.4473875195       28.1622792766  TIP3      2585            0.0000000000
     32654      2785  TIP3      H1              1.3285629427       26.5301280594       28.2841724055  TIP3      2585            0.0000000000
     32655      2785  TIP3      H2              1.3701971500       27.7631023304       27.3427341805  TIP3      2585            0.0000000000
     32656      2786  TIP3      OH2            10.8110238283       35.3604431451       28.5951881730  TIP3      2586            0.0000000000
     32657      2786  TIP3      H1             11.6834055910       34.9377877846       28.4260109911  TIP3      2586            0.0000000000
     32658      2786  TIP3      H2             10.3410202962       34.6515749410       29.0485547995  TIP3      2586            0.0000000000
     32659      2787  TIP3      OH2             8.3668848156       29.6523946755       31.0979207323  TIP3      2587            0.0000000000
     32660      2787  TIP3      H1              8.7303213899       29.8679941953       30.2383455517  TIP3      2587            0.0000000000
     32661      2787  TIP3      H2              9.1561139205       29.8474152728       31.6505221251  TIP3      2587            0.0000000000
     32662      2788  TIP3      OH2            17.1160984291       21.1990393577       31.4299583936  TIP3      2588            0.0000000000
     32663      2788  TIP3      H1             17.1966794188       21.8413110405       32.1740038196  TIP3      2588            0.0000000000
     32664      2788  TIP3      H2             17.9459964601       21.3998493430       30.9630812029  TIP3      2588            0.0000000000
     32665      2789  TIP3      OH2            12.1020465553       24.3463971146       31.1378577987  TIP3      2589            0.0000000000
     32666      2789  TIP3      H1             12.2663992913       23.4002945651       31.3370812844  TIP3      2589            0.0000000000
     32667      2789  TIP3      H2             12.0296435695       24.2845078340       30.1564523980  TIP3      2589            0.0000000000
     32668      2790  TIP3      OH2             4.8633212172       22.2338703012       27.9949617058  TIP3      2590            0.0000000000
     32669      2790  TIP3      H1              4.4289550952       22.8996310074       27.4308143107  TIP3      2590            0.0000000000
     32670      2790  TIP3      H2              4.8276599703       21.4595198272       27.3968977572  TIP3      2590            0.0000000000
     32671      2791  TIP3      OH2            12.7428764787       22.4190299229       26.6803932168  TIP3      2591            0.0000000000
     32672      2791  TIP3      H1             13.2276343743       22.1091996915       27.4848207093  TIP3      2591            0.0000000000
     32673      2791  TIP3      H2             13.4316696004       22.9716086876       26.2757701614  TIP3      2591            0.0000000000
     32674      2792  TIP3      OH2             1.7799521855       25.0019441840       29.0016153161  TIP3      2592            0.0000000000
     32675      2792  TIP3      H1              2.2728165354       24.3248150464       29.5137001459  TIP3      2592            0.0000000000
     32676      2792  TIP3      H2              1.8122040461       24.6068382941       28.1091243722  TIP3      2592            0.0000000000
     32677      2793  TIP3      OH2            17.3463512416       22.7581259040       33.6014506868  TIP3      2593            0.0000000000
     32678      2793  TIP3      H1             17.0144560222       23.5849442453       33.1799327983  TIP3      2593            0.0000000000
     32679      2793  TIP3      H2             17.3790211093       23.0482338805       34.5233941135  TIP3      2593            0.0000000000
     32680      2794  TIP3      OH2             3.8407423206       21.3024128151       32.3735199034  TIP3      2594            0.0000000000
     32681      2794  TIP3      H1              3.5272087357       21.8180842908       31.6012873994  TIP3      2594            0.0000000000
     32682      2794  TIP3      H2              3.1822535221       21.5657057736       33.0590682414  TIP3      2594            0.0000000000
     32683      2795  TIP3      OH2             6.0105474924       28.8495817633       32.2494325901  TIP3      2595            0.0000000000
     32684      2795  TIP3      H1              5.5393086867       29.5978514336       32.6859096416  TIP3      2595            0.0000000000
     32685      2795  TIP3      H2              6.7809116867       29.3220967227       31.8560230228  TIP3      2595            0.0000000000
     32686      2796  TIP3      OH2            14.2969859708       21.8896488249       28.7481338492  TIP3      2596            0.0000000000
     32687      2796  TIP3      H1             14.3558832869       21.1421719083       29.3542037148  TIP3      2596            0.0000000000
     32688      2796  TIP3      H2             15.1020587856       22.3797532040       28.9677296909  TIP3      2596            0.0000000000
     32689      2797  TIP3      OH2             3.4801033889       23.2047834764       30.2670810518  TIP3      2597            0.0000000000
     32690      2797  TIP3      H1              4.1406208751       23.7096473208       30.8044388383  TIP3      2597            0.0000000000
     32691      2797  TIP3      H2              4.0242782727       22.9149479139       29.5014775703  TIP3      2597            0.0000000000
     32692      2798  TIP3      OH2             4.8722190207       31.1429074838       33.2216790122  TIP3      2598            0.0000000000
     32693      2798  TIP3      H1              4.7461508043       32.0283208796       32.8492693230  TIP3      2598            0.0000000000
     32694      2798  TIP3      H2              3.9831759391       30.9589931990       33.6089435490  TIP3      2598            0.0000000000
     32695      2799  TIP3      OH2             0.9156493675       30.3225724847       24.4601811226  TIP3      2599            0.0000000000
     32696      2799  TIP3      H1              0.7726394110       30.9413457461       23.7318717345  TIP3      2599            0.0000000000
     32697      2799  TIP3      H2              0.9976624626       30.9449232508       25.2029886517  TIP3      2599            0.0000000000
     32698      2800  TIP3      OH2            14.3792900044       32.6532714954       31.2731409698  TIP3      2600            0.0000000000
     32699      2800  TIP3      H1             13.4061757852       32.5931482531       31.2759646162  TIP3      2600            0.0000000000
     32700      2800  TIP3      H2             14.4928990691       33.2050214143       30.4915330309  TIP3      2600            0.0000000000
     32701      2801  TIP3      OH2            14.3397174101       20.6887483280       32.1523005754  TIP3      2601            0.0000000000
     32702      2801  TIP3      H1             13.6566221760       21.1519918912       31.6092612964  TIP3      2601            0.0000000000
     32703      2801  TIP3      H2             15.1644756882       20.8916337376       31.6781319288  TIP3      2601            0.0000000000
     32704      2802  TIP3      OH2             7.4004573915       18.7994979085       29.5148378890  TIP3      2602            0.0000000000
     32705      2802  TIP3      H1              7.0128301341       17.9241101206       29.5993654459  TIP3      2602            0.0000000000
     32706      2802  TIP3      H2              6.6101469295       19.3263510837       29.8114181437  TIP3      2602            0.0000000000
     32707      2803  TIP3      OH2            13.0299588440       34.1057908610       27.7157355983  TIP3      2603            0.0000000000
     32708      2803  TIP3      H1             12.8884114589       33.2561239465       27.2680249135  TIP3      2603            0.0000000000
     32709      2803  TIP3      H2             13.7707914852       34.4758920611       27.1814344578  TIP3      2603            0.0000000000
     32710      2804  TIP3      OH2            14.0817220245       31.9133643459       25.9348253946  TIP3      2604            0.0000000000
     32711      2804  TIP3      H1             13.6309293299       31.4086385297       25.2376575075  TIP3      2604            0.0000000000
     32712      2804  TIP3      H2             13.8940186268       31.3046940436       26.6692923693  TIP3      2604            0.0000000000
     32713      2805  TIP3      OH2            15.3605693515       30.5517868562       34.5781200266  TIP3      2605            0.0000000000
     32714      2805  TIP3      H1             15.4473417100       29.7935274848       33.9600813433  TIP3      2605            0.0000000000
     32715      2805  TIP3      H2             15.6425280120       31.2831637585       33.9873151858  TIP3      2605            0.0000000000
     32716      2806  TIP3      OH2            17.5578336584       27.0422935402       32.5001975033  TIP3      2606            0.0000000000
     32717      2806  TIP3      H1             16.9173917196       27.7780274654       32.5651753406  TIP3      2606            0.0000000000
     32718      2806  TIP3      H2             18.1280156371       27.3959200280       31.7752993916  TIP3      2606            0.0000000000
     32719      2807  TIP3      OH2            13.4224832931       26.8734269990       25.4174418296  TIP3      2607            0.0000000000
     32720      2807  TIP3      H1             13.0427429267       27.7608946661       25.5029857004  TIP3      2607            0.0000000000
     32721      2807  TIP3      H2             14.2206029766       26.8855476806       25.9860154465  TIP3      2607            0.0000000000
     32722      2808  TIP3      OH2            13.5708142406       25.9247405991       34.3424252566  TIP3      2608            0.0000000000
     32723      2808  TIP3      H1             13.4130076730       26.7289205151       34.8542555669  TIP3      2608            0.0000000000
     32724      2808  TIP3      H2             12.8494461802       26.0015077183       33.6868597235  TIP3      2608            0.0000000000
     32725      2809  TIP3      OH2             6.3303942245       31.5931060708       29.9395408228  TIP3      2609            0.0000000000
     32726      2809  TIP3      H1              6.3159899352       31.6744293513       28.9522607192  TIP3      2609            0.0000000000
     32727      2809  TIP3      H2              7.1872598802       31.1824977951       30.1381387531  TIP3      2609            0.0000000000
     32728      2810  TIP3      OH2             5.6713810826       26.7659269390       30.7100205843  TIP3      2610            0.0000000000
     32729      2810  TIP3      H1              5.6664759071       27.1956785442       29.8513601994  TIP3      2610            0.0000000000
     32730      2810  TIP3      H2              5.7666473245       27.5317211711       31.3211912454  TIP3      2610            0.0000000000
     32731      2811  TIP3      OH2            11.7240962385       32.6136971462       31.4257730436  TIP3      2611            0.0000000000
     32732      2811  TIP3      H1             11.3072065598       33.3532725210       31.9092441357  TIP3      2611            0.0000000000
     32733      2811  TIP3      H2             11.3758399874       31.8443089353       31.9132233569  TIP3      2611            0.0000000000
     32734      2812  TIP3      OH2             6.4479250702       31.2863130556       35.4126645427  TIP3      2612            0.0000000000
     32735      2812  TIP3      H1              5.8049195790       31.8963681870       35.8361376893  TIP3      2612            0.0000000000
     32736      2812  TIP3      H2              6.0319152442       31.2099163111       34.5291309179  TIP3      2612            0.0000000000
     32737      2813  TIP3      OH2             3.4266758483       27.8284432575       34.3429742376  TIP3      2613            0.0000000000
     32738      2813  TIP3      H1              3.5150686274       28.5727831505       34.9624578774  TIP3      2613            0.0000000000
     32739      2813  TIP3      H2              2.7870684954       27.2983871507       34.8607595409  TIP3      2613            0.0000000000
     32740      2814  TIP3      OH2             4.6731445808       33.2306309268       36.1980297734  TIP3      2614            0.0000000000
     32741      2814  TIP3      H1              4.6173767342       33.3042058222       35.2184203156  TIP3      2614            0.0000000000
     32742      2814  TIP3      H2              3.7570911636       32.9516628912       36.4217609458  TIP3      2614            0.0000000000
     32743      2815  TIP3      OH2             3.4883105818       27.1443082584       25.2040250378  TIP3      2615            0.0000000000
     32744      2815  TIP3      H1              3.4330608719       27.8083183715       24.4984985496  TIP3      2615            0.0000000000
     32745      2815  TIP3      H2              3.4036197164       26.3180909783       24.7053148783  TIP3      2615            0.0000000000
     32746      2816  TIP3      OH2             0.2973295229       29.8535448908       33.7150875376  TIP3      2616            0.0000000000
     32747      2816  TIP3      H1             -0.1729316432       29.6498441875       32.8952512091  TIP3      2616            0.0000000000
     32748      2816  TIP3      H2              0.6642509633       28.9744133981       33.9418947764  TIP3      2616            0.0000000000
     32749      2817  TIP3      OH2             0.2013198350       32.3553447300       30.2960279881  TIP3      2617            0.0000000000
     32750      2817  TIP3      H1              1.1366491237       32.1582507896       30.1355829640  TIP3      2617            0.0000000000
     32751      2817  TIP3      H2              0.2424525044       33.1999261399       30.7727790377  TIP3      2617            0.0000000000
     32752      2818  TIP3      OH2            17.8841570271       33.1636457648       36.4842324768  TIP3      2618            0.0000000000
     32753      2818  TIP3      H1             17.6669312475       32.2147136189       36.5148496462  TIP3      2618            0.0000000000
     32754      2818  TIP3      H2             17.0048853429       33.5245038121       36.7672270032  TIP3      2618            0.0000000000
     32755      2819  TIP3      OH2             8.8965656074       32.5429070470       34.8418641516  TIP3      2619            0.0000000000
     32756      2819  TIP3      H1              9.0188223450       33.4183815933       35.2793026065  TIP3      2619            0.0000000000
     32757      2819  TIP3      H2              8.0267608083       32.2464546986       35.1811440930  TIP3      2619            0.0000000000
     32758      2820  TIP3      OH2             9.2936311785       36.1361609632       24.4175666596  TIP3      2620            0.0000000000
     32759      2820  TIP3      H1             10.2572291923       36.0511147905       24.2881305011  TIP3      2620            0.0000000000
     32760      2820  TIP3      H2              9.2442238817       36.3304404890       25.3606458513  TIP3      2620            0.0000000000
     32761      2821  TIP3      OH2             3.3504665730       34.6342981460       26.8474685332  TIP3      2621            0.0000000000
     32762      2821  TIP3      H1              3.6524658128       34.7533823128       27.7781281664  TIP3      2621            0.0000000000
     32763      2821  TIP3      H2              2.6135341094       34.0129158225       26.9863992164  TIP3      2621            0.0000000000
     32764      2822  TIP3      OH2            12.4550769226       35.6540728504       22.0285472589  TIP3      2622            0.0000000000
     32765      2822  TIP3      H1             13.0236747497       35.2658997822       21.3558091458  TIP3      2622            0.0000000000
     32766      2822  TIP3      H2             12.6388842359       35.1062759139       22.8068889029  TIP3      2622            0.0000000000
     32767      2823  TIP3      OH2            11.9562029560       35.1368676215       24.8200321879  TIP3      2623            0.0000000000
     32768      2823  TIP3      H1             11.5850199945       35.0187497259       25.7038140105  TIP3      2623            0.0000000000
     32769      2823  TIP3      H2             12.5457638352       34.3729208566       24.7915001315  TIP3      2623            0.0000000000
     32770      2824  TIP3      OH2            15.0723491770       24.4883088006       36.5490666083  TIP3      2624            0.0000000000
     32771      2824  TIP3      H1             14.5136610710       24.8740956146       35.8478816229  TIP3      2624            0.0000000000
     32772      2824  TIP3      H2             15.0596189351       23.5408589441       36.3043732198  TIP3      2624            0.0000000000
     32773      2825  TIP3      OH2             2.5662989449       30.9396395951       34.5545029528  TIP3      2625            0.0000000000
     32774      2825  TIP3      H1              2.5972403550       30.5330052687       35.4499074379  TIP3      2625            0.0000000000
     32775      2825  TIP3      H2              1.6538990980       30.7081828482       34.2754916818  TIP3      2625            0.0000000000
     32776      2826  TIP3      OH2             5.0217297032       19.7386356625       30.4548553678  TIP3      2626            0.0000000000
     32777      2826  TIP3      H1              4.1241001727       19.5716895438       30.1050878554  TIP3      2626            0.0000000000
     32778      2826  TIP3      H2              4.7945515047       20.2820259555       31.2422306571  TIP3      2626            0.0000000000
     32779      2827  TIP3      OH2             9.8970649422       18.6935149916       33.5761253277  TIP3      2627            0.0000000000
     32780      2827  TIP3      H1             10.1825299397       18.6469374768       34.5044312769  TIP3      2627            0.0000000000
     32781      2827  TIP3      H2              8.9375229698       18.8998386874       33.6528601778  TIP3      2627            0.0000000000
     32782      2828  TIP3      OH2            12.5776448109       23.3573279361       35.1014217048  TIP3      2628            0.0000000000
     32783      2828  TIP3      H1             11.9789443054       22.9784110797       35.8008495788  TIP3      2628            0.0000000000
     32784      2828  TIP3      H2             12.2929076734       24.2850601578       35.0667717068  TIP3      2628            0.0000000000
     32785      2829  TIP3      OH2             5.2456149593       24.4138891795       31.8650045200  TIP3      2629            0.0000000000
     32786      2829  TIP3      H1              4.5550102448       24.6332670451       32.5255827851  TIP3      2629            0.0000000000
     32787      2829  TIP3      H2              5.3114326905       25.2643377930       31.3686415787  TIP3      2629            0.0000000000
     32788      2830  TIP3      OH2            10.7251917324       25.3561558878       25.3828863702  TIP3      2630            0.0000000000
     32789      2830  TIP3      H1             10.9314915412       26.2353012342       25.0496168707  TIP3      2630            0.0000000000
     32790      2830  TIP3      H2             11.3203319761       24.8014862600       24.8480347719  TIP3      2630            0.0000000000
     32791      2831  TIP3      OH2             9.6235103143       25.3808026260       36.8522531672  TIP3      2631            0.0000000000
     32792      2831  TIP3      H1              9.2935232093       24.5126035374       37.1553368335  TIP3      2631            0.0000000000
     32793      2831  TIP3      H2             10.3787898502       25.5255679410       37.4551578855  TIP3      2631            0.0000000000
     32794      2832  TIP3      OH2            11.8812799441       24.6029750911       28.3825982903  TIP3      2632            0.0000000000
     32795      2832  TIP3      H1             11.7061632600       25.4080112074       27.8631465743  TIP3      2632            0.0000000000
     32796      2832  TIP3      H2             11.8095116420       23.9057472375       27.7045574366  TIP3      2632            0.0000000000
     32797      2833  TIP3      OH2             2.7372911028       24.6254505907       33.0844342549  TIP3      2633            0.0000000000
     32798      2833  TIP3      H1              3.2027386338       24.8771385347       33.8935243813  TIP3      2633            0.0000000000
     32799      2833  TIP3      H2              2.4539817169       23.7059785106       33.2953315950  TIP3      2633            0.0000000000
     32800      2834  TIP3      OH2             5.8798850488       22.6551727975       20.2909682451  TIP3      2634            0.0000000000
     32801      2834  TIP3      H1              5.7204253029       22.0849755442       21.0622576753  TIP3      2634            0.0000000000
     32802      2834  TIP3      H2              6.4559708525       22.0791906462       19.7514531685  TIP3      2634            0.0000000000
     32803      2835  TIP3      OH2            -0.7534998096       21.7334451426       27.5752116592  TIP3      2635            0.0000000000
     32804      2835  TIP3      H1             -0.0394980654       21.5891967764       28.2192721968  TIP3      2635            0.0000000000
     32805      2835  TIP3      H2             -0.3795684350       21.4540529297       26.7206796220  TIP3      2635            0.0000000000
     32806      2836  TIP3      OH2             0.3992407225       22.7175613330       22.6739124531  TIP3      2636            0.0000000000
     32807      2836  TIP3      H1              1.2069166973       23.1628554766       22.3827980921  TIP3      2636            0.0000000000
     32808      2836  TIP3      H2             -0.1718522302       23.4823441993       22.8860328376  TIP3      2636            0.0000000000
     32809      2837  TIP3      OH2            11.3459045021       26.4864808072       32.6520657378  TIP3      2637            0.0000000000
     32810      2837  TIP3      H1             11.5387404677       25.6978531697       32.0969816258  TIP3      2637            0.0000000000
     32811      2837  TIP3      H2             10.6330510186       26.1244902971       33.2176328583  TIP3      2637            0.0000000000
     32812      2838  TIP3      OH2             7.6537503894       22.1580315109       27.7496723162  TIP3      2638            0.0000000000
     32813      2838  TIP3      H1              6.6882573134       22.2899583494       27.8871409587  TIP3      2638            0.0000000000
     32814      2838  TIP3      H2              8.0013318909       22.4805508074       28.5956267605  TIP3      2638            0.0000000000
     32815      2839  TIP3      OH2             2.5994705174       23.7246440030       26.5555594274  TIP3      2639            0.0000000000
     32816      2839  TIP3      H1              1.8143644295       24.0541681034       26.0743517786  TIP3      2639            0.0000000000
     32817      2839  TIP3      H2              2.5929413841       22.7867643823       26.2808420526  TIP3      2639            0.0000000000
     32818      2840  TIP3      OH2             6.3002989315       23.7939744448       23.9406933761  TIP3      2640            0.0000000000
     32819      2840  TIP3      H1              7.0749636671       24.3317314319       24.1440959893  TIP3      2640            0.0000000000
     32820      2840  TIP3      H2              5.6854002440       24.4298307502       23.5356473633  TIP3      2640            0.0000000000
     32821      2841  TIP3      OH2            12.1462294485       21.6567619519       30.8537141917  TIP3      2641            0.0000000000
     32822      2841  TIP3      H1             11.4200353632       21.5593207712       31.4974003355  TIP3      2641            0.0000000000
     32823      2841  TIP3      H2             11.6955939735       21.4562952254       30.0133321697  TIP3      2641            0.0000000000
     32824      2842  TIP3      OH2             4.8777521352       25.0294916014       21.7535835319  TIP3      2642            0.0000000000
     32825      2842  TIP3      H1              4.5352132613       24.2318512496       21.3336819585  TIP3      2642            0.0000000000
     32826      2842  TIP3      H2              5.6842952587       25.1013534839       21.2285395724  TIP3      2642            0.0000000000
     32827      2843  TIP3      OH2            14.7801245286       37.0772906255       37.2062500549  TIP3      2643            0.0000000000
     32828      2843  TIP3      H1             14.9674595887       37.3175521806       36.2857209488  TIP3      2643            0.0000000000
     32829      2843  TIP3      H2             15.6823793718       37.1556308036       37.6010848093  TIP3      2643            0.0000000000
     32830      2844  TIP3      OH2             2.9344125307       29.3011234675       36.8601318433  TIP3      2644            0.0000000000
     32831      2844  TIP3      H1              3.6144112419       29.6199288054       37.4815085901  TIP3      2644            0.0000000000
     32832      2844  TIP3      H2              2.1598340038       29.1485159302       37.4459622030  TIP3      2644            0.0000000000
     32833      2845  TIP3      OH2             8.9651347022       24.5852555229       29.2264542464  TIP3      2645            0.0000000000
     32834      2845  TIP3      H1              9.9139557624       24.4138454394       29.2367808612  TIP3      2645            0.0000000000
     32835      2845  TIP3      H2              8.6889291035       24.1576340716       30.0495633839  TIP3      2645            0.0000000000
     32836      2846  TIP3      OH2             3.5941384845       21.0014317099       25.8641823127  TIP3      2646            0.0000000000
     32837      2846  TIP3      H1              2.9272356131       20.4774985119       26.3539071611  TIP3      2646            0.0000000000
     32838      2846  TIP3      H2              3.9992766218       20.3337957227       25.3001640608  TIP3      2646            0.0000000000
     32839      2847  TIP3      OH2             7.5023062029       23.0616053505       31.7392276298  TIP3      2647            0.0000000000
     32840      2847  TIP3      H1              6.7716200032       23.7100039679       31.8565288465  TIP3      2647            0.0000000000
     32841      2847  TIP3      H2              8.2005705228       23.4249199569       32.2907776708  TIP3      2647            0.0000000000
     32842      2848  TIP3      OH2            15.6695752761       28.9578466374       32.5310106508  TIP3      2648            0.0000000000
     32843      2848  TIP3      H1             16.2064634267       29.4610032063       31.8790859332  TIP3      2648            0.0000000000
     32844      2848  TIP3      H2             14.8529564711       28.8803227666       32.0148951956  TIP3      2648            0.0000000000
     32845      2849  TIP3      OH2            11.4809962370       22.4604433279       21.6769397364  TIP3      2649            0.0000000000
     32846      2849  TIP3      H1             10.9775955084       23.1516589079       21.2396137462  TIP3      2649            0.0000000000
     32847      2849  TIP3      H2             12.1381745190       22.9727004655       22.1738156054  TIP3      2649            0.0000000000
     32848      2850  TIP3      OH2             9.2977620963       29.8267133961       34.8233620052  TIP3      2650            0.0000000000
     32849      2850  TIP3      H1              9.2913181052       29.5675575032       35.7494816414  TIP3      2650            0.0000000000
     32850      2850  TIP3      H2              9.0905320277       30.7736582682       34.8854612825  TIP3      2650            0.0000000000
     32851      2851  TIP3      OH2            12.7703492096       24.2062407455       23.5517704762  TIP3      2651            0.0000000000
     32852      2851  TIP3      H1             13.4218654329       24.0119241854       24.2590125783  TIP3      2651            0.0000000000
     32853      2851  TIP3      H2             13.2944700778       24.8218021594       23.0300778659  TIP3      2651            0.0000000000
     32854      2852  TIP3      OH2             3.6177300905       29.1157510926       29.3771227387  TIP3      2652            0.0000000000
     32855      2852  TIP3      H1              3.4739472140       28.8005977188       28.4777264552  TIP3      2652            0.0000000000
     32856      2852  TIP3      H2              3.4513638668       28.3290003036       29.9330738641  TIP3      2652            0.0000000000
     32857      2853  TIP3      OH2             0.3866621881       27.2662274395       34.7990942976  TIP3      2653            0.0000000000
     32858      2853  TIP3      H1              0.2891787449       26.6524372034       35.5565202549  TIP3      2653            0.0000000000
     32859      2853  TIP3      H2             -0.1542547413       26.8394111938       34.1116591523  TIP3      2653            0.0000000000
     32860      2854  TIP3      OH2             7.3167499216       26.7709300123       36.5216000505  TIP3      2654            0.0000000000
     32861      2854  TIP3      H1              6.8492798416       26.1416157904       35.9724429192  TIP3      2654            0.0000000000
     32862      2854  TIP3      H2              8.2241420098       26.3800328179       36.5564733743  TIP3      2654            0.0000000000
     32863      2855  TIP3      OH2            12.1600575195       32.0414876013       35.0391641920  TIP3      2655            0.0000000000
     32864      2855  TIP3      H1             11.3453111125       32.2898346843       34.5984027305  TIP3      2655            0.0000000000
     32865      2855  TIP3      H2             12.0599422016       32.5234984927       35.8796900962  TIP3      2655            0.0000000000
     32866      2856  TIP3      OH2            17.4066015474       24.4849698706       23.6505726834  TIP3      2656            0.0000000000
     32867      2856  TIP3      H1             17.4246353676       23.9308208107       22.8639358361  TIP3      2656            0.0000000000
     32868      2856  TIP3      H2             17.5116933303       25.3942049002       23.2688940474  TIP3      2656            0.0000000000
     32869      2857  TIP3      OH2            17.7331506778       30.3218824647       35.9794509693  TIP3      2657            0.0000000000
     32870      2857  TIP3      H1             16.8053367769       30.4424356228       35.6769727684  TIP3      2657            0.0000000000
     32871      2857  TIP3      H2             18.1969620660       30.3281217201       35.1152799309  TIP3      2657            0.0000000000
     32872      2858  TIP3      OH2            16.1630563665       32.7337522521       23.3799468363  TIP3      2658            0.0000000000
     32873      2858  TIP3      H1             15.5723445740       32.1166628142       23.8417482938  TIP3      2658            0.0000000000
     32874      2858  TIP3      H2             16.0963098735       32.4495115472       22.4644829291  TIP3      2658            0.0000000000
     32875      2859  TIP3      OH2            13.2795747329       28.0952239570       30.6836173731  TIP3      2659            0.0000000000
     32876      2859  TIP3      H1             12.6655996482       27.5516070927       31.2067334899  TIP3      2659            0.0000000000
     32877      2859  TIP3      H2             13.7950876362       27.4247843588       30.2030630067  TIP3      2659            0.0000000000
     32878      2860  TIP3      OH2             5.8690378073       32.1640945694       27.3567613039  TIP3      2660            0.0000000000
     32879      2860  TIP3      H1              6.6575573006       32.3060838807       26.8027603877  TIP3      2660            0.0000000000
     32880      2860  TIP3      H2              5.1400099609       32.4961622842       26.8090697828  TIP3      2660            0.0000000000
     32881      2861  TIP3      OH2             2.1636514533       27.3654500813       20.7882105212  TIP3      2661            0.0000000000
     32882      2861  TIP3      H1              2.3883174872       28.0169394683       21.4685781626  TIP3      2661            0.0000000000
     32883      2861  TIP3      H2              1.2227582924       27.2117433777       20.9678319288  TIP3      2661            0.0000000000
     32884      2862  TIP3      OH2             7.6714403645       34.1946928333       33.1495361781  TIP3      2662            0.0000000000
     32885      2862  TIP3      H1              8.1969555635       35.0045917390       32.9823636038  TIP3      2662            0.0000000000
     32886      2862  TIP3      H2              8.3445827311       33.6277949745       33.5908161306  TIP3      2662            0.0000000000
     32887      2863  TIP3      OH2             5.7618546150       34.9614778798       25.5296095466  TIP3      2663            0.0000000000
     32888      2863  TIP3      H1              4.9212982148       34.8744325075       26.0408578585  TIP3      2663            0.0000000000
     32889      2863  TIP3      H2              6.2998993147       35.4822193698       26.1570284048  TIP3      2663            0.0000000000
     32890      2864  TIP3      OH2            10.6658634002       30.2108894044       32.4890942439  TIP3      2664            0.0000000000
     32891      2864  TIP3      H1             10.2424698196       29.9893801925       33.3571720698  TIP3      2664            0.0000000000
     32892      2864  TIP3      H2             11.3751331502       29.5516449489       32.4883702487  TIP3      2664            0.0000000000
     32893      2865  TIP3      OH2            13.7447748434       34.7448807073       34.9265507048  TIP3      2665            0.0000000000
     32894      2865  TIP3      H1             12.9680277699       34.2397243791       34.6053330166  TIP3      2665            0.0000000000
     32895      2865  TIP3      H2             13.9062867524       35.3934967152       34.2093112271  TIP3      2665            0.0000000000
     32896      2866  TIP3      OH2            18.4331165313       35.5860743982       21.6840522932  TIP3      2666            0.0000000000
     32897      2866  TIP3      H1             18.8777335793       36.4074872522       21.4357089628  TIP3      2666            0.0000000000
     32898      2866  TIP3      H2             17.5970759661       35.9559090449       22.0378116460  TIP3      2666            0.0000000000
     32899      2867  TIP3      OH2             2.1446436385       22.1673220959       34.2847282871  TIP3      2667            0.0000000000
     32900      2867  TIP3      H1              1.3382820228       22.5816682845       34.6190288927  TIP3      2667            0.0000000000
     32901      2867  TIP3      H2              2.1566020765       21.3495941174       34.8172106309  TIP3      2667            0.0000000000
     32902      2868  TIP3      OH2            14.5112190556       29.7322839134       23.8336212270  TIP3      2668            0.0000000000
     32903      2868  TIP3      H1             14.3435806164       28.8265189521       24.0942698356  TIP3      2668            0.0000000000
     32904      2868  TIP3      H2             15.4949420601       29.7433905729       23.7235585080  TIP3      2668            0.0000000000
     32905      2869  TIP3      OH2             1.7544879204       33.5383848037       32.8740485855  TIP3      2669            0.0000000000
     32906      2869  TIP3      H1              2.0823330228       32.6329199700       32.8376382229  TIP3      2669            0.0000000000
     32907      2869  TIP3      H2              2.4102792727       33.9413150818       33.4694684201  TIP3      2669            0.0000000000
     32908      2870  TIP3      OH2             7.0067945383       32.7910717936       19.9895824603  TIP3      2670            0.0000000000
     32909      2870  TIP3      H1              7.8611681517       32.4011527154       19.7893987449  TIP3      2670            0.0000000000
     32910      2870  TIP3      H2              6.8796591709       32.5555366132       20.9243098033  TIP3      2670            0.0000000000
     32911      2871  TIP3      OH2             6.0554482481       31.8024122946       22.4161872021  TIP3      2671            0.0000000000
     32912      2871  TIP3      H1              6.8335731150       31.5235037105       22.9291643861  TIP3      2671            0.0000000000
     32913      2871  TIP3      H2              5.9943491241       32.7475233720       22.6799880136  TIP3      2671            0.0000000000
     32914      2872  TIP3      OH2             3.0778820075       29.1276881421       22.9734562033  TIP3      2672            0.0000000000
     32915      2872  TIP3      H1              2.2572008540       29.4244017621       23.4123580015  TIP3      2672            0.0000000000
     32916      2872  TIP3      H2              3.5338784238       29.9455984144       22.7533661659  TIP3      2672            0.0000000000
     32917      2873  TIP3      OH2            10.6282767178       21.8076366561       33.4934926112  TIP3      2673            0.0000000000
     32918      2873  TIP3      H1             11.4565394691       22.1051535170       33.8973614737  TIP3      2673            0.0000000000
     32919      2873  TIP3      H2             10.4631620262       20.9366454162       33.8882852868  TIP3      2673            0.0000000000
     32920      2874  TIP3      OH2            11.7525479881       21.2461985464       24.5722178248  TIP3      2674            0.0000000000
     32921      2874  TIP3      H1             11.6670724590       22.0882757149       24.1048125330  TIP3      2674            0.0000000000
     32922      2874  TIP3      H2             12.1203729558       21.5947104996       25.4270750499  TIP3      2674            0.0000000000
     32923      2875  TIP3      OH2             9.0807547040       22.9253986502       25.4301657553  TIP3      2675            0.0000000000
     32924      2875  TIP3      H1              9.4110754033       23.8359373548       25.5456129504  TIP3      2675            0.0000000000
     32925      2875  TIP3      H2              8.4800242866       22.8100318916       26.1935146737  TIP3      2675            0.0000000000
     32926      2876  TIP3      OH2             9.7984352279       24.3444945081       34.2270191521  TIP3      2676            0.0000000000
     32927      2876  TIP3      H1              9.8165206446       24.5423074857       35.1867364759  TIP3      2676            0.0000000000
     32928      2876  TIP3      H2             10.0384695270       23.3977503529       34.1613700889  TIP3      2676            0.0000000000
     32929      2877  TIP3      OH2             9.5804289342       19.8329472562       25.7531739275  TIP3      2677            0.0000000000
     32930      2877  TIP3      H1              9.2241829243       20.5082426821       26.3643306508  TIP3      2677            0.0000000000
     32931      2877  TIP3      H2             10.4103042347       20.2917898643       25.4908780322  TIP3      2677            0.0000000000
     32932      2878  TIP3      OH2             6.1406609778       34.4655772236       22.9915557191  TIP3      2678            0.0000000000
     32933      2878  TIP3      H1              5.4255290423       35.0852797634       22.8145391793  TIP3      2678            0.0000000000
     32934      2878  TIP3      H2              6.1083577477       34.5486374631       23.9774487801  TIP3      2678            0.0000000000
     32935      2879  TIP3      OH2             5.3181222647       21.3777774119       22.6550739070  TIP3      2679            0.0000000000
     32936      2879  TIP3      H1              5.1876531040       22.1211823015       23.2736159822  TIP3      2679            0.0000000000
     32937      2879  TIP3      H2              6.2214337092       21.0978862940       22.9213564520  TIP3      2679            0.0000000000
     32938      2880  TIP3      OH2            15.0884218355       22.0942944600       35.2526264217  TIP3      2680            0.0000000000
     32939      2880  TIP3      H1             14.1622517325       22.3617775585       35.0453174287  TIP3      2680            0.0000000000
     32940      2880  TIP3      H2             15.5370435862       22.1605930952       34.3941329499  TIP3      2680            0.0000000000
     32941      2881  TIP3      OH2            14.2098432677       25.7876114289       29.1229038597  TIP3      2681            0.0000000000
     32942      2881  TIP3      H1             13.4705919983       25.1538650374       29.0447668214  TIP3      2681            0.0000000000
     32943      2881  TIP3      H2             14.8937169303       25.2518545408       29.5748402605  TIP3      2681            0.0000000000
     32944      2882  TIP3      OH2            15.2071071075       35.5381320068       31.1231809400  TIP3      2682            0.0000000000
     32945      2882  TIP3      H1             15.2198920255       35.9800760067       30.2408820368  TIP3      2682            0.0000000000
     32946      2882  TIP3      H2             16.1533523223       35.2900807997       31.1613195648  TIP3      2682            0.0000000000
     32947      2883  TIP3      OH2             2.3904921887       19.1940206746       29.9504773773  TIP3      2683            0.0000000000
     32948      2883  TIP3      H1              2.3383613575       19.1083868758       28.9701117777  TIP3      2683            0.0000000000
     32949      2883  TIP3      H2              2.1630795165       18.2777829097       30.2271986488  TIP3      2683            0.0000000000
     32950      2884  TIP3      OH2             1.1610906240       32.9558217652       25.7423739412  TIP3      2684            0.0000000000
     32951      2884  TIP3      H1              0.3783112686       33.4417715313       26.0227926597  TIP3      2684            0.0000000000
     32952      2884  TIP3      H2              1.3472952182       33.4477239382       24.9099883568  TIP3      2684            0.0000000000
     32953      2885  TIP3      OH2             0.7094756765       35.8477834863       37.1224299589  TIP3      2685            0.0000000000
     32954      2885  TIP3      H1              1.6046790867       35.7793894405       37.4860684646  TIP3      2685            0.0000000000
     32955      2885  TIP3      H2              0.3982481689       34.9322964594       37.1777603085  TIP3      2685            0.0000000000
     32956      2886  TIP3      OH2             5.5898800589       34.1895308805       38.6685606993  TIP3      2686            0.0000000000
     32957      2886  TIP3      H1              6.5407875687       34.3695489943       38.7191571453  TIP3      2686            0.0000000000
     32958      2886  TIP3      H2              5.4433607657       33.9748963222       37.7219613346  TIP3      2686            0.0000000000
     32959      2887  TIP3      OH2            11.7526487020       33.2213696678       37.5272669789  TIP3      2687            0.0000000000
     32960      2887  TIP3      H1             11.3919963624       32.3437727843       37.7993676003  TIP3      2687            0.0000000000
     32961      2887  TIP3      H2             12.5494628869       33.2441237464       38.0817604106  TIP3      2687            0.0000000000
     32962      2888  TIP3      OH2             0.3829979394       29.4613273487       38.0056039468  TIP3      2688            0.0000000000
     32963      2888  TIP3      H1              0.0200733758       28.5657737716       38.0896753568  TIP3      2688            0.0000000000
     32964      2888  TIP3      H2             -0.1474643121       29.8118413511       37.2550853980  TIP3      2688            0.0000000000
     32965      2889  TIP3      OH2             7.2034118364       29.3770376361       37.0996672899  TIP3      2689            0.0000000000
     32966      2889  TIP3      H1              6.9566374852       29.9777160677       36.3520677832  TIP3      2689            0.0000000000
     32967      2889  TIP3      H2              7.0222799392       28.4804146531       36.7449673862  TIP3      2689            0.0000000000
     32968      2890  TIP3      OH2            12.8599372451       29.3223787118       34.9801984159  TIP3      2690            0.0000000000
     32969      2890  TIP3      H1             13.6693046642       29.8777814225       34.9191953607  TIP3      2690            0.0000000000
     32970      2890  TIP3      H2             12.2124452529       30.0501411610       35.0724923339  TIP3      2690            0.0000000000
     32971      2891  TIP3      OH2             1.7999732803       26.4904115440       37.4763750617  TIP3      2691            0.0000000000
     32972      2891  TIP3      H1              1.6290694176       25.5947260379       37.7855864478  TIP3      2691            0.0000000000
     32973      2891  TIP3      H2              2.1385374569       26.9729848319       38.2554672250  TIP3      2691            0.0000000000
     32974      2892  TIP3      OH2             5.1527589541       25.7361849723       34.2911939370  TIP3      2692            0.0000000000
     32975      2892  TIP3      H1              4.7666497482       26.6428232617       34.2685716252  TIP3      2692            0.0000000000
     32976      2892  TIP3      H2              6.0439804827       25.9535039173       33.9442398921  TIP3      2692            0.0000000000
     32977      2893  TIP3      OH2            10.8991014452       28.4401054355       38.2505106485  TIP3      2693            0.0000000000
     32978      2893  TIP3      H1             11.7178550206       27.9623856868       38.0509178046  TIP3      2693            0.0000000000
     32979      2893  TIP3      H2             10.4802155941       27.8296998255       38.8844503068  TIP3      2693            0.0000000000
     32980      2894  TIP3      OH2             6.1814451756       23.2260445600       35.4651880715  TIP3      2694            0.0000000000
     32981      2894  TIP3      H1              6.1228216586       22.4969235767       34.8069977159  TIP3      2694            0.0000000000
     32982      2894  TIP3      H2              5.8564781296       23.9808488861       34.9429892027  TIP3      2694            0.0000000000
     32983      2895  TIP3      OH2             6.2780917736       21.2744719400       33.4539086890  TIP3      2695            0.0000000000
     32984      2895  TIP3      H1              6.7517939907       21.7210395434       32.7077817667  TIP3      2695            0.0000000000
     32985      2895  TIP3      H2              5.3464786311       21.2944215367       33.1356790951  TIP3      2695            0.0000000000
     32986      2896  TIP3      OH2             7.5355630516       27.0383620127       33.4256251576  TIP3      2696            0.0000000000
     32987      2896  TIP3      H1              8.3399948782       27.5602037209       33.3289075500  TIP3      2696            0.0000000000
     32988      2896  TIP3      H2              6.9264308599       27.6221252296       32.9284955751  TIP3      2696            0.0000000000
     32989      2897  TIP3      OH2            12.2642740176       24.4732896510       38.4923151699  TIP3      2697            0.0000000000
     32990      2897  TIP3      H1             12.5339197949       23.5532136616       38.3548285341  TIP3      2697            0.0000000000
     32991      2897  TIP3      H2             13.1058377994       24.9452280258       38.5547724238  TIP3      2697            0.0000000000
     32992      2898  TIP3      OH2            13.6873348395       27.6881762056       36.9975215433  TIP3      2698            0.0000000000
     32993      2898  TIP3      H1             13.3082267415       28.2346760603       36.2813553712  TIP3      2698            0.0000000000
     32994      2898  TIP3      H2             14.6372058839       27.6866238822       36.7693891176  TIP3      2698            0.0000000000
     32995      2899  TIP3      OH2             4.4957083956       24.0750131365       37.7972164576  TIP3      2699            0.0000000000
     32996      2899  TIP3      H1              3.6538279172       23.6260166605       37.5724591492  TIP3      2699            0.0000000000
     32997      2899  TIP3      H2              5.0404164636       23.8901914855       37.0103525155  TIP3      2699            0.0000000000
     32998      2900  TIP3      OH2             7.2016543958       18.8004797793       33.5136351837  TIP3      2700            0.0000000000
     32999      2900  TIP3      H1              6.9066003240       19.7336648213       33.6014925538  TIP3      2700            0.0000000000
     33000      2900  TIP3      H2              6.3609444579       18.4073682468       33.2263892975  TIP3      2700            0.0000000000
     33001      2901  TIP3      OH2             8.3191338784       22.9489088902       37.5134836006  TIP3      2701            0.0000000000
     33002      2901  TIP3      H1              7.7013007262       22.7571351780       38.2445284151  TIP3      2701            0.0000000000
     33003      2901  TIP3      H2              7.7024865318       22.9647272254       36.7553143343  TIP3      2701            0.0000000000
     33004      2902  TIP3      OH2            10.8532513429       22.2965279410       36.7404502250  TIP3      2702            0.0000000000
     33005      2902  TIP3      H1              9.9644422984       22.4228011938       37.1298805061  TIP3      2702            0.0000000000
     33006      2902  TIP3      H2             11.2828990007       21.7450858800       37.4297563819  TIP3      2702            0.0000000000
     33007      2903  TIP3      OH2            12.5371428322       20.9635516818       38.4716696020  TIP3      2703            0.0000000000
     33008      2903  TIP3      H1             12.5748194563       19.9828995945       38.4087474351  TIP3      2703            0.0000000000
     33009      2903  TIP3      H2             12.4250630616       21.1286126837       39.4331958258  TIP3      2703            0.0000000000
     33010      2904  TIP3      OH2             2.3852001937       22.1171526659       37.8020964437  TIP3      2704            0.0000000000
     33011      2904  TIP3      H1              2.1361191579       21.3127883574       37.2982991193  TIP3      2704            0.0000000000
     33012      2904  TIP3      H2              2.1801843449       21.8421995521       38.7333511839  TIP3      2704            0.0000000000
     33013      2905  TIP3      OH2             7.2146999974       18.4629011289       36.5293784605  TIP3      2705            0.0000000000
     33014      2905  TIP3      H1              8.0102399492       17.9113788657       36.6044682749  TIP3      2705            0.0000000000
     33015      2905  TIP3      H2              7.0868876157       18.3490477245       35.5745174118  TIP3      2705            0.0000000000
     33016      2906  TIP3      OH2             7.4350417668       19.8123859586       38.9113665122  TIP3      2706            0.0000000000
     33017      2906  TIP3      H1              7.2286632176       19.4348178197       38.0248318063  TIP3      2706            0.0000000000
     33018      2906  TIP3      H2              6.8949867376       20.6270829062       38.9442373884  TIP3      2706            0.0000000000
     33019      2907  TIP3      OH2            -0.4660317203       36.9231377126       26.3813659790  TIP3      2707            0.0000000000
     33020      2907  TIP3      H1             -1.2125586018       36.4387557582       25.9566438386  TIP3      2707            0.0000000000
     33021      2907  TIP3      H2             -0.3678478243       36.3825008414       27.1818979875  TIP3      2707            0.0000000000
     33022      2908  TIP3      OH2             0.4814410241       34.7954997530       28.3521125785  TIP3      2708            0.0000000000
     33023      2908  TIP3      H1             -0.2075397074       34.1862531113       28.6825328550  TIP3      2708            0.0000000000
     33024      2908  TIP3      H2              1.1299995191       34.8135159202       29.0844519233  TIP3      2708            0.0000000000
     33025      2909  TIP3      OH2            17.9474009003       35.5985027290       30.8205599341  TIP3      2709            0.0000000000
     33026      2909  TIP3      H1             18.1640606966       36.2257264285       31.5412288542  TIP3      2709            0.0000000000
     33027      2909  TIP3      H2             18.5271990386       35.8747119591       30.0872598177  TIP3      2709            0.0000000000
     33028      2910  TIP3      OH2            17.2795906385       35.0576811525       34.2146163908  TIP3      2710            0.0000000000
     33029      2910  TIP3      H1             16.9979624525       34.3604039349       33.5811847311  TIP3      2710            0.0000000000
     33030      2910  TIP3      H2             17.8023146201       34.5010718412       34.8109178811  TIP3      2710            0.0000000000
     33031      2911  TIP3      OH2            15.9850364632       30.9254130229       38.6686677054  TIP3      2711            0.0000000000
     33032      2911  TIP3      H1             15.0998555457       30.9072569741       39.0932660967  TIP3      2711            0.0000000000
     33033      2911  TIP3      H2             16.3202934639       31.7964176184       38.9714293629  TIP3      2711            0.0000000000
     33034      2912  TIP3      OH2            17.1413425910       29.3714336388       23.9032038500  TIP3      2712            0.0000000000
     33035      2912  TIP3      H1             17.9480206376       29.9241118649       24.0130167833  TIP3      2712            0.0000000000
     33036      2912  TIP3      H2             17.2033207930       28.8328256886       24.7142286229  TIP3      2712            0.0000000000
     33037      2913  TIP3      OH2            17.5471263708       27.4417535931       25.8263749993  TIP3      2713            0.0000000000
     33038      2913  TIP3      H1             16.7837415500       26.9243959986       26.1829491498  TIP3      2713            0.0000000000
     33039      2913  TIP3      H2             18.0114197473       27.6946454526       26.6439348096  TIP3      2713            0.0000000000
     33040      2914  TIP3      OH2            17.2076409847       30.0700770394       30.7087941773  TIP3      2714            0.0000000000
     33041      2914  TIP3      H1             17.8963751415       29.3860151021       30.5658242771  TIP3      2714            0.0000000000
     33042      2914  TIP3      H2             17.6164345257       30.8666467677       30.3155592291  TIP3      2714            0.0000000000
     33043      2915  TIP3      OH2            15.9907601413       32.8615339638       33.2991093465  TIP3      2715            0.0000000000
     33044      2915  TIP3      H1             15.3694505278       33.3665950145       33.8457218757  TIP3      2715            0.0000000000
     33045      2915  TIP3      H2             15.4768234475       32.7787305591       32.4553297197  TIP3      2715            0.0000000000
     33046      2916  TIP3      OH2            17.5875530432       26.9302524688       22.7308952899  TIP3      2716            0.0000000000
     33047      2916  TIP3      H1             17.1576622432       27.5860918438       22.1780949696  TIP3      2716            0.0000000000
     33048      2916  TIP3      H2             17.9754989948       27.5401425083       23.3941705926  TIP3      2716            0.0000000000
     33049      2917  TIP3      OH2            15.5925241276       26.0059622021       26.7828324065  TIP3      2717            0.0000000000
     33050      2917  TIP3      H1             15.2575869304       25.1212617743       26.5726128598  TIP3      2717            0.0000000000
     33051      2917  TIP3      H2             15.2921406362       26.0964724988       27.7111614492  TIP3      2717            0.0000000000
     33052      2918  TIP3      OH2             0.4051136533       28.0728394099       30.6946137252  TIP3      2718            0.0000000000
     33053      2918  TIP3      H1              0.5453688089       27.8824336055       29.7337228602  TIP3      2718            0.0000000000
     33054      2918  TIP3      H2              1.2941605192       27.8436989760       31.0342085105  TIP3      2718            0.0000000000
     33055      2919  TIP3      OH2            16.4897792058       27.8451300794       36.2413764617  TIP3      2719            0.0000000000
     33056      2919  TIP3      H1             16.9926642966       27.0024121515       36.3743403298  TIP3      2719            0.0000000000
     33057      2919  TIP3      H2             17.1677244567       28.5335350420       36.0885664612  TIP3      2719            0.0000000000
     33058      2920  TIP3      OH2            17.5364828305       25.3895690025       36.4051160174  TIP3      2720            0.0000000000
     33059      2920  TIP3      H1             16.6131109422       25.0432579498       36.4750653017  TIP3      2720            0.0000000000
     33060      2920  TIP3      H2             18.0802831773       24.6083263791       36.6602692884  TIP3      2720            0.0000000000
     33061      2921  TIP3      OH2            15.0366797041       23.5358112094       25.1898179206  TIP3      2721            0.0000000000
     33062      2921  TIP3      H1             15.2736421812       22.5849878760       25.2854786484  TIP3      2721            0.0000000000
     33063      2921  TIP3      H2             15.8656601233       23.8422733670       24.7841199470  TIP3      2721            0.0000000000
     33064      2922  TIP3      OH2            16.0355318407       24.0636770648       30.5164401437  TIP3      2722            0.0000000000
     33065      2922  TIP3      H1             17.0090507450       24.2016293701       30.6598858688  TIP3      2722            0.0000000000
     33066      2922  TIP3      H2             15.7216445181       24.1947885499       31.4291691905  TIP3      2722            0.0000000000
     33067      2923  TIP3      OH2            15.8302767652       24.8814563942       33.1168360068  TIP3      2723            0.0000000000
     33068      2923  TIP3      H1             14.9815618459       25.2141647657       33.4819142564  TIP3      2723            0.0000000000
     33069      2923  TIP3      H2             16.3495089904       25.7126405255       33.0203496548  TIP3      2723            0.0000000000
     33070      2924  TIP3      OH2             0.2904234795       23.3321855636       36.8343211048  TIP3      2724            0.0000000000
     33071      2924  TIP3      H1              1.1157573849       22.9176550597       37.1678780950  TIP3      2724            0.0000000000
     33072      2924  TIP3      H2             -0.3018662463       22.5474126154       36.7872858780  TIP3      2724            0.0000000000
     33073      2925  TIP3      OH2            18.2657628622       19.2692329940       38.4221389753  TIP3      2725            0.0000000000
     33074      2925  TIP3      H1             18.6881997860       18.4973591217       37.9989794089  TIP3      2725            0.0000000000
     33075      2925  TIP3      H2             18.0169146785       19.8250895667       37.6554084691  TIP3      2725            0.0000000000
     33076      2926  TIP3      OH2            15.7085852526       20.8971080650       25.1837027034  TIP3      2726            0.0000000000
     33077      2926  TIP3      H1             16.0534243146       20.5270739115       26.0300630624  TIP3      2726            0.0000000000
     33078      2926  TIP3      H2             15.1826692550       20.1397729107       24.8201856090  TIP3      2726            0.0000000000
     33079      2927  TIP3      OH2             1.1340849448       21.6161753815       29.9790667809  TIP3      2727            0.0000000000
     33080      2927  TIP3      H1              1.5579494271       20.7364028718       30.0416782042  TIP3      2727            0.0000000000
     33081      2927  TIP3      H2              1.9101120180       22.2060753456       30.0005528081  TIP3      2727            0.0000000000
     33082      2928  TIP3      OH2            -0.1376866464       24.6300568798       30.8074952469  TIP3      2728            0.0000000000
     33083      2928  TIP3      H1              0.4760002934       24.4806737133       30.0607765591  TIP3      2728            0.0000000000
     33084      2928  TIP3      H2              0.2564716819       25.4412764973       31.1337271356  TIP3      2728            0.0000000000
     33085      2929  TIP3      OH2            17.3216110634       21.1276560042       36.5725137755  TIP3      2729            0.0000000000
     33086      2929  TIP3      H1             16.4120969972       21.4857375652       36.5388612661  TIP3      2729            0.0000000000
     33087      2929  TIP3      H2             17.2804568682       20.4964567301       35.8385728378  TIP3      2729            0.0000000000
     33088      2930  TIP3      OH2            17.2374130899       20.7546609265       21.6327937619  TIP3      2730            0.0000000000
     33089      2930  TIP3      H1             17.1113346627       21.0525845086       20.7057990568  TIP3      2730            0.0000000000
     33090      2930  TIP3      H2             17.7703097751       21.4667291832       22.0084344594  TIP3      2730            0.0000000000
     33091      2931  TIP3      OH2            -0.0706347441       21.1014148833       24.8829012475  TIP3      2731            0.0000000000
     33092      2931  TIP3      H1             -1.0072306148       21.2683145163       24.7458640587  TIP3      2731            0.0000000000
     33093      2931  TIP3      H2              0.2623189258       21.1825986332       23.9703667045  TIP3      2731            0.0000000000
     33094      2932  TIP3      OH2            14.7337421416       35.6432637498       26.4039686720  TIP3      2732            0.0000000000
     33095      2932  TIP3      H1             15.5534140080       35.3793875483       25.9353942136  TIP3      2732            0.0000000000
     33096      2932  TIP3      H2             15.0874833827       36.1407904651       27.1696890749  TIP3      2732            0.0000000000
     33097      2933  TIP3      OH2            -0.1718460230       19.3990504173       33.0997537592  TIP3      2733            0.0000000000
     33098      2933  TIP3      H1             -0.7852638252       19.0729351625       33.7875875197  TIP3      2733            0.0000000000
     33099      2933  TIP3      H2             -0.7290148693       20.0047778459       32.5712433765  TIP3      2733            0.0000000000
     33100      2934  TIP3      OH2             2.1268475391       32.5508087722       37.0063537665  TIP3      2734            0.0000000000
     33101      2934  TIP3      H1              1.2572134939       32.5502759718       36.5756143728  TIP3      2734            0.0000000000
     33102      2934  TIP3      H2              1.9094884403       32.6907521343       37.9345665653  TIP3      2734            0.0000000000
     33103      2935  TIP3      OH2             4.9939397679       33.8622744244       33.6647702543  TIP3      2735            0.0000000000
     33104      2935  TIP3      H1              4.8494893327       34.8361690219       33.6133135992  TIP3      2735            0.0000000000
     33105      2935  TIP3      H2              5.9601162698       33.8514171049       33.5124665890  TIP3      2735            0.0000000000
     33106      2936  TIP3      OH2             9.3072304997       34.8085996625       36.2278835729  TIP3      2736            0.0000000000
     33107      2936  TIP3      H1              9.2421676628       34.6494072666       37.1959199975  TIP3      2736            0.0000000000
     33108      2936  TIP3      H2             10.1166985322       35.3596748587       36.1809633000  TIP3      2736            0.0000000000
     33109      2937  TIP3      OH2            11.6524440006       36.6631851669       35.8035614931  TIP3      2737            0.0000000000
     33110      2937  TIP3      H1             12.3877591795       36.0374588164       35.6767130933  TIP3      2737            0.0000000000
     33111      2937  TIP3      H2             11.7340091783       36.8127343157       36.7765854326  TIP3      2737            0.0000000000
     33112      2938  TIP3      OH2            16.7286232705       18.9298035212       34.8668956177  TIP3      2738            0.0000000000
     33113      2938  TIP3      H1             15.9927039412       19.3329059084       34.3941878138  TIP3      2738            0.0000000000
     33114      2938  TIP3      H2             16.8049281519       18.0435587720       34.4439979569  TIP3      2738            0.0000000000
     33115      2939  TIP3      OH2             2.1738660114       37.3686007433       33.4220881398  TIP3      2739            0.0000000000
     33116      2939  TIP3      H1              1.3011909689       37.4338542230       32.9809924283  TIP3      2739            0.0000000000
     33117      2939  TIP3      H2              1.9360509255       37.0646572639       34.3082566577  TIP3      2739            0.0000000000
     33118      2940  TIP3      OH2             4.5813088252       36.4188660193       32.9715448238  TIP3      2740            0.0000000000
     33119      2940  TIP3      H1              3.7349398037       36.8932859306       33.2080749624  TIP3      2740            0.0000000000
     33120      2940  TIP3      H2              4.6747296885       36.6813687974       32.0369303182  TIP3      2740            0.0000000000
     33121      2941  TIP3      OH2             9.5922598861       36.3047206104       31.7335964636  TIP3      2741            0.0000000000
     33122      2941  TIP3      H1              8.8735207826       36.4828033798       31.0912315658  TIP3      2741            0.0000000000
     33123      2941  TIP3      H2              9.6406297739       37.1655253328       32.1969172238  TIP3      2741            0.0000000000
     33124      2942  TIP3      OH2            11.4136943018       34.8360697818       33.1131564210  TIP3      2742            0.0000000000
     33125      2942  TIP3      H1             10.7067465424       35.3626797628       32.6742261493  TIP3      2742            0.0000000000
     33126      2942  TIP3      H2             12.1637305603       35.4432493881       32.9716605344  TIP3      2742            0.0000000000
     33127      2943  TIP3      OH2            13.8298430701       36.8645724039       32.9516120228  TIP3      2743            0.0000000000
     33128      2943  TIP3      H1             13.6500066538       37.7877372858       32.7116042803  TIP3      2743            0.0000000000
     33129      2943  TIP3      H2             14.2995421876       36.5346845071       32.1376886301  TIP3      2743            0.0000000000
     33130      2944  TIP3      OH2             1.9430039177       34.8985309866       30.6174104566  TIP3      2744            0.0000000000
     33131      2944  TIP3      H1              1.8386361883       34.3675968364       31.4570612981  TIP3      2744            0.0000000000
     33132      2944  TIP3      H2              2.7939443109       34.5549935316       30.2674499888  TIP3      2744            0.0000000000
     33133      2945  TIP3      OH2             4.1698198825       34.4295874362       29.2827878722  TIP3      2745            0.0000000000
     33134      2945  TIP3      H1              3.9777757390       33.4871145698       29.4797007186  TIP3      2745            0.0000000000
     33135      2945  TIP3      H2              5.0929977231       34.4716951357       29.6220540272  TIP3      2745            0.0000000000
     33136      2946  TIP3      OH2             6.4789147402       34.3068861882       30.5583876916  TIP3      2746            0.0000000000
     33137      2946  TIP3      H1              6.7374002157       33.3932711670       30.3287945759  TIP3      2746            0.0000000000
     33138      2946  TIP3      H2              6.7373560238       34.3782822356       31.4992352138  TIP3      2746            0.0000000000
     33139      2947  TIP3      OH2             9.9178471722       20.6081876409       29.0547754245  TIP3      2747            0.0000000000
     33140      2947  TIP3      H1              8.9888812984       20.3053752595       29.0853421356  TIP3      2747            0.0000000000
     33141      2947  TIP3      H2             10.3354074628       19.8223873591       28.7046306446  TIP3      2747            0.0000000000
     33142      2948  TIP3      OH2            15.2186260492       18.3316673065       28.9796311282  TIP3      2748            0.0000000000
     33143      2948  TIP3      H1             15.9124094367       18.9143514630       28.5822605330  TIP3      2748            0.0000000000
     33144      2948  TIP3      H2             14.4149197457       18.7919718721       28.6929217554  TIP3      2748            0.0000000000
     33145      2949  TIP3      OH2            16.8263187845       19.7699056827       27.4485599029  TIP3      2749            0.0000000000
     33146      2949  TIP3      H1             17.3719206446       19.1946408588       26.8598612701  TIP3      2749            0.0000000000
     33147      2949  TIP3      H2             17.4544263631       20.5007476452       27.6543476813  TIP3      2749            0.0000000000
     33148      2950  TIP3      OH2             2.1723613869       19.0154952207       27.1326744488  TIP3      2750            0.0000000000
     33149      2950  TIP3      H1              1.3481818612       18.8913506687       26.6165900116  TIP3      2750            0.0000000000
     33150      2950  TIP3      H2              2.6380391986       18.1727847696       26.9217887946  TIP3      2750            0.0000000000
     33151      2951  TIP3      OH2             6.6836308830       19.0034638274       26.7622659305  TIP3      2751            0.0000000000
     33152      2951  TIP3      H1              7.4866163320       18.8624602108       26.2447119604  TIP3      2751            0.0000000000
     33153      2951  TIP3      H2              7.0190676080       18.9353565482       27.6729404642  TIP3      2751            0.0000000000
     33154      2952  TIP3      OH2            12.5880281285       18.7751904940       28.0711152770  TIP3      2752            0.0000000000
     33155      2952  TIP3      H1             12.6053244938       19.5463407541       27.5045495985  TIP3      2752            0.0000000000
     33156      2952  TIP3      H2             13.0400281007       18.0721003510       27.5585050976  TIP3      2752            0.0000000000
     33157      2953  TIP3      OH2            14.0587012442       18.9185254300       24.2792320123  TIP3      2753            0.0000000000
     33158      2953  TIP3      H1             13.2417189673       19.4306073428       24.3213865684  TIP3      2753            0.0000000000
     33159      2953  TIP3      H2             13.6871031482       18.0160492282       24.3260214569  TIP3      2753            0.0000000000
     33160      2954  TIP3      OH2             0.9530655006       34.6863914056       23.7051582471  TIP3      2754            0.0000000000
     33161      2954  TIP3      H1              0.0407014081       34.6798816241       23.3824576527  TIP3      2754            0.0000000000
     33162      2954  TIP3      H2              1.2419557049       35.5553558121       23.3618365563  TIP3      2754            0.0000000000
     33163      2955  TIP3      OH2             2.6364705723       20.4838473777       21.2951211771  TIP3      2755            0.0000000000
     33164      2955  TIP3      H1              3.3969351808       20.1225648250       20.8187808972  TIP3      2755            0.0000000000
     33165      2955  TIP3      H2              3.0818937844       21.1472118715       21.8284791087  TIP3      2755            0.0000000000
     33166      2956  TIP3      OH2             8.0408337293       20.9294914027       23.3683590697  TIP3      2756            0.0000000000
     33167      2956  TIP3      H1              8.3578994892       20.6325790702       24.2339352781  TIP3      2756            0.0000000000
     33168      2956  TIP3      H2              7.9922136969       21.8911965635       23.5252549953  TIP3      2756            0.0000000000
     33169      2957  TIP3      OH2            16.6569708697       35.1828420926       24.6067184434  TIP3      2757            0.0000000000
     33170      2957  TIP3      H1             16.4874842592       34.3746499642       24.0729149455  TIP3      2757            0.0000000000
     33171      2957  TIP3      H2             16.4319819689       35.8899996534       23.9584112914  TIP3      2757            0.0000000000
     33172      2958  TIP3      OH2             2.0014354398       19.6815421595       36.3913855648  TIP3      2758            0.0000000000
     33173      2958  TIP3      H1              1.4919697906       18.8552112828       36.4659717025  TIP3      2758            0.0000000000
     33174      2958  TIP3      H2              2.7503033022       19.5108503914       37.0184064358  TIP3      2758            0.0000000000
     33175      2959  TIP3      OH2             3.9903275848       18.8375019528       38.1937251373  TIP3      2759            0.0000000000
     33176      2959  TIP3      H1              4.9334588840       18.6624711198       38.0297790185  TIP3      2759            0.0000000000
     33177      2959  TIP3      H2              3.7063738242       17.9609889953       38.5195229803  TIP3      2759            0.0000000000
     33178      2960  TIP3      OH2            12.4620170067       18.2187832655       38.1155752329  TIP3      2760            0.0000000000
     33179      2960  TIP3      H1             12.2970906913       17.6073571419       38.8597445888  TIP3      2760            0.0000000000
     33180      2960  TIP3      H2             13.4267973631       18.0800704188       37.9629132340  TIP3      2760            0.0000000000
     33181      2961  TIP3      OH2            15.4946415621       34.1596501283       36.9556105241  TIP3      2761            0.0000000000
     33182      2961  TIP3      H1             14.7330904154       34.2189694878       36.3326964656  TIP3      2761            0.0000000000
     33183      2961  TIP3      H2             15.7432703328       35.0965864571       37.0077348572  TIP3      2761            0.0000000000
     33184      2962  TIP3      OH2            30.2999125268       28.0156621093       26.6540815419  TIP3      2762            0.0000000000
     33185      2962  TIP3      H1             30.3222476200       28.9937140694       26.7335276033  TIP3      2762            0.0000000000
     33186      2962  TIP3      H2             29.4426550024       27.9433831706       26.2105186232  TIP3      2762            0.0000000000
     33187      2963  TIP3      OH2            29.1074460835       26.9066308404       30.0089701033  TIP3      2763            0.0000000000
     33188      2963  TIP3      H1             29.2216850939       26.5984460534       30.9361344973  TIP3      2763            0.0000000000
     33189      2963  TIP3      H2             28.2373963863       26.5918896046       29.7135897884  TIP3      2763            0.0000000000
     33190      2964  TIP3      OH2            21.2641608314       26.9366560396       31.7612969953  TIP3      2764            0.0000000000
     33191      2964  TIP3      H1             21.4060278690       26.2345059079       32.4183275812  TIP3      2764            0.0000000000
     33192      2964  TIP3      H2             21.9871754318       27.5553418132       31.9503811223  TIP3      2764            0.0000000000
     33193      2965  TIP3      OH2            32.9668384059       30.5073763469       28.9726829207  TIP3      2765            0.0000000000
     33194      2965  TIP3      H1             32.7654718296       29.7418918221       29.5214870052  TIP3      2765            0.0000000000
     33195      2965  TIP3      H2             32.7380827487       31.2539850351       29.5428946126  TIP3      2765            0.0000000000
     33196      2966  TIP3      OH2            22.3719287982       31.5777345571       30.1920863317  TIP3      2766            0.0000000000
     33197      2966  TIP3      H1             22.0313996996       30.7072356338       29.8933532366  TIP3      2766            0.0000000000
     33198      2966  TIP3      H2             23.3193360219       31.4058899978       30.0353154799  TIP3      2766            0.0000000000
     33199      2967  TIP3      OH2            19.1217778670       24.9770881221       25.5741672416  TIP3      2767            0.0000000000
     33200      2967  TIP3      H1             18.7596039135       25.7892455600       25.9561441476  TIP3      2767            0.0000000000
     33201      2967  TIP3      H2             18.5239209592       24.8647344524       24.8128203479  TIP3      2767            0.0000000000
     33202      2968  TIP3      OH2            19.7598381019       27.3382770065       28.3014591796  TIP3      2768            0.0000000000
     33203      2968  TIP3      H1             20.1535171929       26.4412401670       28.4028552955  TIP3      2768            0.0000000000
     33204      2968  TIP3      H2             20.2561370192       27.7489266609       27.5832838430  TIP3      2768            0.0000000000
     33205      2969  TIP3      OH2            29.6045040451       35.4661689380       28.6527002113  TIP3      2769            0.0000000000
     33206      2969  TIP3      H1             30.4293432853       34.9659744405       28.4301856353  TIP3      2769            0.0000000000
     33207      2969  TIP3      H2             29.2801654080       34.9403393478       29.3937632805  TIP3      2769            0.0000000000
     33208      2970  TIP3      OH2            27.3659210276       29.7719354874       31.0255137123  TIP3      2770            0.0000000000
     33209      2970  TIP3      H1             27.6736662060       29.5967566731       30.1334473282  TIP3      2770            0.0000000000
     33210      2970  TIP3      H2             28.2073447743       29.9780572018       31.4835129040  TIP3      2770            0.0000000000
     33211      2971  TIP3      OH2            36.2413226852       21.5408459381       31.0495490760  TIP3      2771            0.0000000000
     33212      2971  TIP3      H1             36.2117069978       22.2795501414       31.6809937516  TIP3      2771            0.0000000000
     33213      2971  TIP3      H2             36.7924680956       21.9276460211       30.3531116282  TIP3      2771            0.0000000000
     33214      2972  TIP3      OH2            30.8814720363       24.1133691506       31.2234718761  TIP3      2772            0.0000000000
     33215      2972  TIP3      H1             31.2433426995       23.2106228188       31.3361506911  TIP3      2772            0.0000000000
     33216      2972  TIP3      H2             30.8722759138       24.1425412273       30.2481396974  TIP3      2772            0.0000000000
     33217      2973  TIP3      OH2            23.8816799689       22.1018462801       27.8302222132  TIP3      2773            0.0000000000
     33218      2973  TIP3      H1             23.9429132992       23.0252972615       27.5156065050  TIP3      2773            0.0000000000
     33219      2973  TIP3      H2             23.2981954890       21.7327687922       27.1307551993  TIP3      2773            0.0000000000
     33220      2974  TIP3      OH2            31.3630396795       22.2042880452       26.8217015836  TIP3      2774            0.0000000000
     33221      2974  TIP3      H1             31.8965361831       21.9918882874       27.6160300987  TIP3      2774            0.0000000000
     33222      2974  TIP3      H2             31.9949102049       22.7660018757       26.3434947694  TIP3      2774            0.0000000000
     33223      2975  TIP3      OH2            20.3011647330       24.6986552513       28.9245050247  TIP3      2775            0.0000000000
     33224      2975  TIP3      H1             20.9304627792       24.2678267714       29.5252760481  TIP3      2775            0.0000000000
     33225      2975  TIP3      H2             20.6629855491       24.3971211217       28.0609119555  TIP3      2775            0.0000000000
     33226      2976  TIP3      OH2            25.2456835740       26.4629487357       28.5209548644  TIP3      2776            0.0000000000
     33227      2976  TIP3      H1             26.0735253797       26.0140007812       28.7638438379  TIP3      2776            0.0000000000
     33228      2976  TIP3      H2             24.8998797199       25.7676593056       27.9230654244  TIP3      2776            0.0000000000
     33229      2977  TIP3      OH2            36.2370831479       22.4657038736       33.9543558205  TIP3      2777            0.0000000000
     33230      2977  TIP3      H1             35.6908852750       23.1966824703       33.5963647941  TIP3      2777            0.0000000000
     33231      2977  TIP3      H2             36.8010061349       22.9595655841       34.5715015779  TIP3      2777            0.0000000000
     33232      2978  TIP3      OH2            22.9545330522       21.1810654564       32.1247857380  TIP3      2778            0.0000000000
     33233      2978  TIP3      H1             22.5258744421       21.7220614534       31.4262384911  TIP3      2778            0.0000000000
     33234      2978  TIP3      H2             22.3759060670       21.3704519983       32.8827469695  TIP3      2778            0.0000000000
     33235      2979  TIP3      OH2            29.7785011380       30.5303010948       25.8493109403  TIP3      2779            0.0000000000
     33236      2979  TIP3      H1             29.6114254174       30.4259241738       24.8897172426  TIP3      2779            0.0000000000
     33237      2979  TIP3      H2             29.5069154680       31.4637410019       25.9926044961  TIP3      2779            0.0000000000
     33238      2980  TIP3      OH2            25.0420860769       28.9734895634       32.0699592115  TIP3      2780            0.0000000000
     33239      2980  TIP3      H1             24.5837176346       29.7253768779       32.5025122318  TIP3      2780            0.0000000000
     33240      2980  TIP3      H2             25.7752402370       29.4120204924       31.5761730076  TIP3      2780            0.0000000000
     33241      2981  TIP3      OH2            33.1893421069       22.1001419187       28.8998673896  TIP3      2781            0.0000000000
     33242      2981  TIP3      H1             33.1762951476       21.1627350782       29.0947896275  TIP3      2781            0.0000000000
     33243      2981  TIP3      H2             34.1052597360       22.3454519549       29.1366965245  TIP3      2781            0.0000000000
     33244      2982  TIP3      OH2            22.4002086701       23.1007473627       30.1769046337  TIP3      2782            0.0000000000
     33245      2982  TIP3      H1             23.0372507366       23.7312953842       30.5899281146  TIP3      2782            0.0000000000
     33246      2982  TIP3      H2             22.8900354990       22.7874741569       29.3831777116  TIP3      2782            0.0000000000
     33247      2983  TIP3      OH2            23.7482359930       31.1001092490       33.1907362513  TIP3      2783            0.0000000000
     33248      2983  TIP3      H1             23.6077392755       32.0157045816       32.8950855882  TIP3      2783            0.0000000000
     33249      2983  TIP3      H2             22.8696885472       30.9200665380       33.6076472323  TIP3      2783            0.0000000000
     33250      2984  TIP3      OH2            19.5748690154       30.4583844287       24.0106569057  TIP3      2784            0.0000000000
     33251      2984  TIP3      H1             19.8199713293       30.9758028753       23.2345534227  TIP3      2784            0.0000000000
     33252      2984  TIP3      H2             19.6228595321       31.1228818736       24.7159216444  TIP3      2784            0.0000000000
     33253      2985  TIP3      OH2            33.0867708075       32.8099366361       31.1157233297  TIP3      2785            0.0000000000
     33254      2985  TIP3      H1             32.1191323192       32.6934931431       31.0954844265  TIP3      2785            0.0000000000
     33255      2985  TIP3      H2             33.1455589510       33.6424064149       30.6207301886  TIP3      2785            0.0000000000
     33256      2986  TIP3      OH2            33.5576764526       21.1517846764       32.2516754845  TIP3      2786            0.0000000000
     33257      2986  TIP3      H1             32.6588739336       21.3267252379       31.8872291236  TIP3      2786            0.0000000000
     33258      2986  TIP3      H2             34.0927013505       21.1525047965       31.4429732794  TIP3      2786            0.0000000000
     33259      2987  TIP3      OH2            26.3129908941       18.6185462357       29.5542396626  TIP3      2787            0.0000000000
     33260      2987  TIP3      H1             26.1196314901       17.6717467058       29.5473558839  TIP3      2787            0.0000000000
     33261      2987  TIP3      H2             25.4137859953       18.9528013877       29.8035440420  TIP3      2787            0.0000000000
     33262      2988  TIP3      OH2            31.5842301467       33.9408202772       27.7123945179  TIP3      2788            0.0000000000
     33263      2988  TIP3      H1             31.8009195704       33.1426419386       27.1965408466  TIP3      2788            0.0000000000
     33264      2988  TIP3      H2             32.1817633504       34.5758541976       27.2508971906  TIP3      2788            0.0000000000
     33265      2989  TIP3      OH2            32.8095937113       31.7813081729       25.9728722594  TIP3      2789            0.0000000000
     33266      2989  TIP3      H1             32.5100261329       31.0496189441       25.4080774618  TIP3      2789            0.0000000000
     33267      2989  TIP3      H2             33.0892384890       31.2956775064       26.7702625084  TIP3      2789            0.0000000000
     33268      2990  TIP3      OH2            34.0920158629       30.4927219889       34.6307431601  TIP3      2790            0.0000000000
     33269      2990  TIP3      H1             34.0563543272       29.8008131486       33.9211718799  TIP3      2790            0.0000000000
     33270      2990  TIP3      H2             34.4223877113       31.2264355151       34.0800574769  TIP3      2790            0.0000000000
     33271      2991  TIP3      OH2            28.7551533112       27.4328732761       24.0499630496  TIP3      2791            0.0000000000
     33272      2991  TIP3      H1             28.2591269551       28.2681974995       23.9225909328  TIP3      2791            0.0000000000
     33273      2991  TIP3      H2             29.5959441902       27.6012612299       23.5769771916  TIP3      2791            0.0000000000
     33274      2992  TIP3      OH2            35.6086492441       26.7857289025       32.3327341060  TIP3      2792            0.0000000000
     33275      2992  TIP3      H1             35.0686491202       27.6075304707       32.3969453662  TIP3      2792            0.0000000000
     33276      2992  TIP3      H2             36.3977502448       27.1330085051       31.8520776001  TIP3      2792            0.0000000000
     33277      2993  TIP3      OH2            32.5329117147       27.6454259648       25.1463437925  TIP3      2793            0.0000000000
     33278      2993  TIP3      H1             31.7531319661       27.8212329045       25.7171529062  TIP3      2793            0.0000000000
     33279      2993  TIP3      H2             33.0638441805       27.0775379008       25.7487890065  TIP3      2793            0.0000000000
     33280      2994  TIP3      OH2            32.3229041158       25.9853527376       34.3837334221  TIP3      2794            0.0000000000
     33281      2994  TIP3      H1             31.9193963860       26.7379074607       34.8427075251  TIP3      2794            0.0000000000
     33282      2994  TIP3      H2             31.7738912599       25.9718645261       33.5830876542  TIP3      2794            0.0000000000
     33283      2995  TIP3      OH2            23.8801655496       28.2610325627       26.9856267553  TIP3      2795            0.0000000000
     33284      2995  TIP3      H1             23.6033091430       27.7630441024       26.1825054984  TIP3      2795            0.0000000000
     33285      2995  TIP3      H2             24.4574945517       27.6155855501       27.4443104754  TIP3      2795            0.0000000000
     33286      2996  TIP3      OH2            25.2126926225       31.6004965579       29.6048046994  TIP3      2796            0.0000000000
     33287      2996  TIP3      H1             25.4252740578       31.8678074062       28.6806574518  TIP3      2796            0.0000000000
     33288      2996  TIP3      H2             26.0347964153       31.2359177106       29.9699422431  TIP3      2796            0.0000000000
     33289      2997  TIP3      OH2            24.0152979500       26.9622670257       30.8858385130  TIP3      2797            0.0000000000
     33290      2997  TIP3      H1             24.3478805088       26.9520493314       29.9626886252  TIP3      2797            0.0000000000
     33291      2997  TIP3      H2             24.5635242943       27.6723632190       31.2883735243  TIP3      2797            0.0000000000
     33292      2998  TIP3      OH2            30.3683616607       32.6668983187       31.2330714275  TIP3      2798            0.0000000000
     33293      2998  TIP3      H1             30.2130625306       33.3932865328       31.8680245097  TIP3      2798            0.0000000000
     33294      2998  TIP3      H2             30.1602956493       31.8704048063       31.7712119121  TIP3      2798            0.0000000000
     33295      2999  TIP3      OH2            25.2222354033       31.4707276775       35.4668377338  TIP3      2799            0.0000000000
     33296      2999  TIP3      H1             24.5832005166       32.1062106560       35.8628734788  TIP3      2799            0.0000000000
     33297      2999  TIP3      H2             24.8188979613       31.3218309697       34.5822164193  TIP3      2799            0.0000000000
     33298      3000  TIP3      OH2            31.2000181920       26.8933906279       23.0320894787  TIP3      2800            0.0000000000
     33299      3000  TIP3      H1             31.8133530133       27.0898158242       23.7768209790  TIP3      2800            0.0000000000
     33300      3000  TIP3      H2             31.6854268177       27.2965758922       22.2841930986  TIP3      2800            0.0000000000
     33301      3001  TIP3      OH2            22.3517912014       27.5372223009       34.5897670154  TIP3      2801            0.0000000000
     33302      3001  TIP3      H1             22.2974671075       28.4410461421       34.9461312516  TIP3      2801            0.0000000000
     33303      3001  TIP3      H2             21.5982287625       27.1418478859       35.0625970230  TIP3      2801            0.0000000000
     33304      3002  TIP3      OH2            29.1718645668       33.2452921559       26.5915196417  TIP3      2802            0.0000000000
     33305      3002  TIP3      H1             29.6286511272       33.5866923740       27.3747941239  TIP3      2802            0.0000000000
     33306      3002  TIP3      H2             28.5408186795       33.9566812941       26.3990499059  TIP3      2802            0.0000000000
     33307      3003  TIP3      OH2            23.3383669503       33.3212606168       36.2408377411  TIP3      2803            0.0000000000
     33308      3003  TIP3      H1             23.2578484449       33.4565774457       35.2731799860  TIP3      2803            0.0000000000
     33309      3003  TIP3      H2             22.5140488807       32.8205257991       36.4478651435  TIP3      2803            0.0000000000
     33310      3004  TIP3      OH2            22.8061285621       27.1046112654       24.7211873142  TIP3      2804            0.0000000000
     33311      3004  TIP3      H1             22.3816170126       27.9311021504       24.4418101694  TIP3      2804            0.0000000000
     33312      3004  TIP3      H2             22.2593331022       26.4368260882       24.2764838358  TIP3      2804            0.0000000000
     33313      3005  TIP3      OH2            19.2447074430       29.8179212661       33.7564592694  TIP3      2805            0.0000000000
     33314      3005  TIP3      H1             18.8701820602       29.7288259188       32.8689628846  TIP3      2805            0.0000000000
     33315      3005  TIP3      H2             19.5483654174       28.8947602398       33.9164134901  TIP3      2805            0.0000000000
     33316      3006  TIP3      OH2            19.1790466487       32.3284931143       30.1562729308  TIP3      2806            0.0000000000
     33317      3006  TIP3      H1             20.1285059496       32.1356213894       30.1984281101  TIP3      2806            0.0000000000
     33318      3006  TIP3      H2             19.1022832271       33.0891939308       30.7553799530  TIP3      2806            0.0000000000
     33319      3007  TIP3      OH2            36.9018523458       33.2281529525       36.3176123760  TIP3      2807            0.0000000000
     33320      3007  TIP3      H1             36.7386159902       32.3583700909       35.9222679014  TIP3      2807            0.0000000000
     33321      3007  TIP3      H2             36.0821941854       33.3661071912       36.8449465982  TIP3      2807            0.0000000000
     33322      3008  TIP3      OH2            27.8516693959       32.3939162877       34.9004944651  TIP3      2808            0.0000000000
     33323      3008  TIP3      H1             28.0156726626       33.2699100959       35.3068124863  TIP3      2808            0.0000000000
     33324      3008  TIP3      H2             26.9201734263       32.2085178929       35.1450785299  TIP3      2808            0.0000000000
     33325      3009  TIP3      OH2            28.6141625943       36.3262415031       24.7960703106  TIP3      2809            0.0000000000
     33326      3009  TIP3      H1             28.1844148569       36.1456486780       23.9420123907  TIP3      2809            0.0000000000
     33327      3009  TIP3      H2             28.2522977158       37.1910315740       24.9988458496  TIP3      2809            0.0000000000
     33328      3010  TIP3      OH2            22.0839759878       34.8210714541       26.7074136788  TIP3      2810            0.0000000000
     33329      3010  TIP3      H1             22.3402940216       34.7201125048       27.6489365701  TIP3      2810            0.0000000000
     33330      3010  TIP3      H2             21.4565549270       34.0812156439       26.5954749640  TIP3      2810            0.0000000000
     33331      3011  TIP3      OH2            32.0676236093       35.6360263186       21.9375351471  TIP3      2811            0.0000000000
     33332      3011  TIP3      H1             31.6173747448       35.0807142016       21.2895605447  TIP3      2811            0.0000000000
     33333      3011  TIP3      H2             31.6253404238       35.3069103371       22.7470068055  TIP3      2811            0.0000000000
     33334      3012  TIP3      OH2            30.9217939291       35.0906819459       24.3927395939  TIP3      2812            0.0000000000
     33335      3012  TIP3      H1             30.0973966514       35.5481371987       24.6797791052  TIP3      2812            0.0000000000
     33336      3012  TIP3      H2             30.9452705182       34.3321494265       24.9999658542  TIP3      2812            0.0000000000
     33337      3013  TIP3      OH2            33.9619929576       24.6967320490       36.5517267722  TIP3      2813            0.0000000000
     33338      3013  TIP3      H1             33.3014001383       24.9475570394       35.8773816570  TIP3      2813            0.0000000000
     33339      3013  TIP3      H2             34.1159284213       23.7496509095       36.3511224743  TIP3      2813            0.0000000000
     33340      3014  TIP3      OH2            21.5160316431       30.9198716817       34.6350735366  TIP3      2814            0.0000000000
     33341      3014  TIP3      H1             21.4880862134       30.5696172102       35.5555670184  TIP3      2814            0.0000000000
     33342      3014  TIP3      H2             20.6133789657       30.7073855020       34.2934549356  TIP3      2814            0.0000000000
     33343      3015  TIP3      OH2            23.9195311368       19.4256036947       30.3976354276  TIP3      2815            0.0000000000
     33344      3015  TIP3      H1             23.0120861539       19.4887165548       30.0358953774  TIP3      2815            0.0000000000
     33345      3015  TIP3      H2             23.7967386354       20.0326950166       31.1586145009  TIP3      2815            0.0000000000
     33346      3016  TIP3      OH2            28.8449847994       19.0442010673       33.7165323742  TIP3      2816            0.0000000000
     33347      3016  TIP3      H1             29.1318430232       18.6911037651       34.5852318768  TIP3      2816            0.0000000000
     33348      3016  TIP3      H2             27.8681983503       19.1128277909       33.8173764465  TIP3      2816            0.0000000000
     33349      3017  TIP3      OH2            31.5670957239       23.1849600827       34.8581785159  TIP3      2817            0.0000000000
     33350      3017  TIP3      H1             31.0783858155       22.7936234184       35.6179495395  TIP3      2817            0.0000000000
     33351      3017  TIP3      H2             31.6003486855       24.1229074453       35.0944874481  TIP3      2817            0.0000000000
     33352      3018  TIP3      OH2            32.4098687732       27.9344171201       20.7325792813  TIP3      2818            0.0000000000
     33353      3018  TIP3      H1             32.4346074409       27.4799435477       19.8805675532  TIP3      2818            0.0000000000
     33354      3018  TIP3      H2             33.2024912875       28.4857622879       20.6201648524  TIP3      2818            0.0000000000
     33355      3019  TIP3      OH2            24.1534539824       24.5621390163       31.8422034204  TIP3      2819            0.0000000000
     33356      3019  TIP3      H1             23.3452081114       24.4590223819       32.3857263061  TIP3      2819            0.0000000000
     33357      3019  TIP3      H2             24.0481434792       25.5152297452       31.6025609994  TIP3      2819            0.0000000000
     33358      3020  TIP3      OH2            24.0911749495       24.5587471969       26.7798270548  TIP3      2820            0.0000000000
     33359      3020  TIP3      H1             23.1316435344       24.5299913757       26.5942434520  TIP3      2820            0.0000000000
     33360      3020  TIP3      H2             24.4477056037       24.3816949030       25.8770891270  TIP3      2820            0.0000000000
     33361      3021  TIP3      OH2            29.8506382138       24.9996775563       24.9856702606  TIP3      2821            0.0000000000
     33362      3021  TIP3      H1             29.4242538897       25.8083720502       24.6193571873  TIP3      2821            0.0000000000
     33363      3021  TIP3      H2             30.6939608928       25.3985889746       25.2450219444  TIP3      2821            0.0000000000
     33364      3022  TIP3      OH2            28.3939181871       25.3994695877       36.9428809498  TIP3      2822            0.0000000000
     33365      3022  TIP3      H1             28.0482240744       24.5341446064       37.2464986548  TIP3      2822            0.0000000000
     33366      3022  TIP3      H2             29.1358910531       25.5075110990       37.5620289407  TIP3      2822            0.0000000000
     33367      3023  TIP3      OH2            30.5982777092       24.7270905294       28.4206262068  TIP3      2823            0.0000000000
     33368      3023  TIP3      H1             30.4365620881       25.5865827366       27.9944172555  TIP3      2823            0.0000000000
     33369      3023  TIP3      H2             30.6028737765       24.1205100597       27.6604128895  TIP3      2823            0.0000000000
     33370      3024  TIP3      OH2            21.7984096720       24.4733379051       33.0161590513  TIP3      2824            0.0000000000
     33371      3024  TIP3      H1             22.0220896939       24.8555112527       33.8782554998  TIP3      2824            0.0000000000
     33372      3024  TIP3      H2             21.3931649665       23.6305395159       33.2847053164  TIP3      2824            0.0000000000
     33373      3025  TIP3      OH2            18.6288083213       21.7889514094       27.6853149853  TIP3      2825            0.0000000000
     33374      3025  TIP3      H1             19.2127848500       21.9040712113       28.4581429844  TIP3      2825            0.0000000000
     33375      3025  TIP3      H2             19.1190188628       22.2132811627       26.9740936293  TIP3      2825            0.0000000000
     33376      3026  TIP3      OH2            19.3210234848       22.6018507776       22.7955223447  TIP3      2826            0.0000000000
     33377      3026  TIP3      H1             20.0006617859       22.8299660235       22.1287534355  TIP3      2826            0.0000000000
     33378      3026  TIP3      H2             19.1564870554       23.5130365372       23.0938016612  TIP3      2826            0.0000000000
     33379      3027  TIP3      OH2            29.8611531127       26.2423149189       32.5650450337  TIP3      2827            0.0000000000
     33380      3027  TIP3      H1             30.3148940515       25.4784111974       32.1348793630  TIP3      2827            0.0000000000
     33381      3027  TIP3      H2             29.2830737077       25.7558657501       33.1927423029  TIP3      2827            0.0000000000
     33382      3028  TIP3      OH2            26.8884351634       21.6205905659       27.6117451144  TIP3      2828            0.0000000000
     33383      3028  TIP3      H1             25.9162988348       21.6165968429       27.5081166880  TIP3      2828            0.0000000000
     33384      3028  TIP3      H2             26.9841385142       22.0788438734       28.4633354937  TIP3      2828            0.0000000000
     33385      3029  TIP3      OH2            21.3205974805       23.7578485411       26.6502740051  TIP3      2829            0.0000000000
     33386      3029  TIP3      H1             20.6318959588       24.0854161244       26.0257093041  TIP3      2829            0.0000000000
     33387      3029  TIP3      H2             21.5753963869       22.8872762691       26.2725959836  TIP3      2829            0.0000000000
     33388      3030  TIP3      OH2            24.6736433963       23.9680466644       24.2191632981  TIP3      2830            0.0000000000
     33389      3030  TIP3      H1             25.6450893666       23.9428712950       24.3140568848  TIP3      2830            0.0000000000
     33390      3030  TIP3      H2             24.5141602431       24.5595137010       23.4661317473  TIP3      2830            0.0000000000
     33391      3031  TIP3      OH2            31.1079218793       21.3337328407       31.0964889967  TIP3      2831            0.0000000000
     33392      3031  TIP3      H1             30.3310005650       21.3411206831       31.6949908172  TIP3      2831            0.0000000000
     33393      3031  TIP3      H2             30.7315988134       21.0409137317       30.2408572881  TIP3      2831            0.0000000000
     33394      3032  TIP3      OH2            23.7953492251       25.1233211779       21.3612469619  TIP3      2832            0.0000000000
     33395      3032  TIP3      H1             23.3450921588       24.8366119692       20.5414091564  TIP3      2832            0.0000000000
     33396      3032  TIP3      H2             24.6920751588       25.2841547105       20.9803581447  TIP3      2832            0.0000000000
     33397      3033  TIP3      OH2            33.8753154558       36.9105417287       37.4168422287  TIP3      2833            0.0000000000
     33398      3033  TIP3      H1             34.1659051366       37.1879591157       36.5332270458  TIP3      2833            0.0000000000
     33399      3033  TIP3      H2             34.7082016452       36.9488734868       37.9311800831  TIP3      2833            0.0000000000
     33400      3034  TIP3      OH2            21.8641836300       29.2439793986       36.8583266490  TIP3      2834            0.0000000000
     33401      3034  TIP3      H1             22.4984022156       29.6348686332       37.4870496494  TIP3      2834            0.0000000000
     33402      3034  TIP3      H2             21.0606231144       29.1320674052       37.4086384520  TIP3      2834            0.0000000000
     33403      3035  TIP3      OH2            27.6245505874       24.7440474439       29.1631904753  TIP3      2835            0.0000000000
     33404      3035  TIP3      H1             28.5741416201       24.6828854854       28.9524528203  TIP3      2835            0.0000000000
     33405      3035  TIP3      H2             27.6299696529       24.5244317617       30.1011927690  TIP3      2835            0.0000000000
     33406      3036  TIP3      OH2            22.1472420513       21.2888577553       25.8884412631  TIP3      2836            0.0000000000
     33407      3036  TIP3      H1             21.6840192955       20.5129964576       26.2911729023  TIP3      2836            0.0000000000
     33408      3036  TIP3      H2             22.5591299156       20.8970378581       25.0971007192  TIP3      2836            0.0000000000
     33409      3037  TIP3      OH2            26.3457221283       23.0811947584       32.0240007654  TIP3      2837            0.0000000000
     33410      3037  TIP3      H1             25.5720559204       23.6952457427       31.9881869753  TIP3      2837            0.0000000000
     33411      3037  TIP3      H2             27.0021151937       23.6068292900       32.4962653342  TIP3      2837            0.0000000000
     33412      3038  TIP3      OH2            26.9588428851       29.4703930737       23.6084047486  TIP3      2838            0.0000000000
     33413      3038  TIP3      H1             26.2621458026       28.8047734156       23.4263866450  TIP3      2838            0.0000000000
     33414      3038  TIP3      H2             26.7012495994       29.7546819914       24.5179758222  TIP3      2838            0.0000000000
     33415      3039  TIP3      OH2            34.1391867130       29.0572706834       32.4686546297  TIP3      2839            0.0000000000
     33416      3039  TIP3      H1             34.6581399626       29.4007318703       31.7221836400  TIP3      2839            0.0000000000
     33417      3039  TIP3      H2             33.3105355932       28.7867681560       32.0127249626  TIP3      2839            0.0000000000
     33418      3040  TIP3      OH2            28.4593666781       29.7923362826       35.0179180223  TIP3      2840            0.0000000000
     33419      3040  TIP3      H1             28.1980404301       29.5199668124       35.9121095592  TIP3      2840            0.0000000000
     33420      3040  TIP3      H2             28.3247678153       30.7595984647       35.0580177536  TIP3      2840            0.0000000000
     33421      3041  TIP3      OH2            22.2264053623       29.1147428312       29.1790816139  TIP3      2841            0.0000000000
     33422      3041  TIP3      H1             22.7865599405       28.9795110951       28.3841734228  TIP3      2841            0.0000000000
     33423      3041  TIP3      H2             22.4978048340       28.3958196451       29.7675396729  TIP3      2841            0.0000000000
     33424      3042  TIP3      OH2            29.3654938416       30.6337207565       23.1686101547  TIP3      2842            0.0000000000
     33425      3042  TIP3      H1             29.1352688958       31.5138230910       22.8340922847  TIP3      2842            0.0000000000
     33426      3042  TIP3      H2             28.4719976169       30.2111556477       23.1625588883  TIP3      2842            0.0000000000
     33427      3043  TIP3      OH2            19.3533925962       27.1406186582       34.7205602838  TIP3      2843            0.0000000000
     33428      3043  TIP3      H1             19.1116172410       26.6083958644       35.5050814688  TIP3      2843            0.0000000000
     33429      3043  TIP3      H2             18.7455709888       26.8055287462       34.0314813879  TIP3      2843            0.0000000000
     33430      3044  TIP3      OH2            26.0484314448       26.8081032178       36.6928160116  TIP3      2844            0.0000000000
     33431      3044  TIP3      H1             25.6617559643       26.2097923246       36.0337565380  TIP3      2844            0.0000000000
     33432      3044  TIP3      H2             26.9886323914       26.5147248782       36.6771241185  TIP3      2844            0.0000000000
     33433      3045  TIP3      OH2            31.1252340070       32.1163453604       35.0651504501  TIP3      2845            0.0000000000
     33434      3045  TIP3      H1             30.2201044018       32.1771456672       34.7470749770  TIP3      2845            0.0000000000
     33435      3045  TIP3      H2             31.0032754785       32.5070933188       35.9559441915  TIP3      2845            0.0000000000
     33436      3046  TIP3      OH2            35.7659175715       24.7579733011       23.6158515520  TIP3      2846            0.0000000000
     33437      3046  TIP3      H1             35.7227731334       24.4301694889       22.6884150983  TIP3      2846            0.0000000000
     33438      3046  TIP3      H2             36.1410317748       25.6344933738       23.4694308499  TIP3      2846            0.0000000000
     33439      3047  TIP3      OH2            36.3237690146       30.2811916402       35.9103983024  TIP3      2847            0.0000000000
     33440      3047  TIP3      H1             35.3768063479       30.5002362045       35.6964020617  TIP3      2847            0.0000000000
     33441      3047  TIP3      H2             36.7010603632       30.2513819245       34.9972742835  TIP3      2847            0.0000000000
     33442      3048  TIP3      OH2            34.4733544371       32.7851085884       23.3940354393  TIP3      2848            0.0000000000
     33443      3048  TIP3      H1             34.1206147562       32.7063805126       24.2955639398  TIP3      2848            0.0000000000
     33444      3048  TIP3      H2             33.7058309203       32.4402045683       22.8887220753  TIP3      2848            0.0000000000
     33445      3049  TIP3      OH2            32.2530500968       28.1309237485       30.7301928956  TIP3      2849            0.0000000000
     33446      3049  TIP3      H1             31.3045126183       28.0263070916       30.5565877440  TIP3      2849            0.0000000000
     33447      3049  TIP3      H2             32.6158598439       27.4385868562       30.1379393692  TIP3      2849            0.0000000000
     33448      3050  TIP3      OH2            24.5059282451       32.2807560439       26.9188498043  TIP3      2850            0.0000000000
     33449      3050  TIP3      H1             24.7320954670       33.1405345798       26.4807741783  TIP3      2850            0.0000000000
     33450      3050  TIP3      H2             23.5718986497       32.2302066408       26.6827233001  TIP3      2850            0.0000000000
     33451      3051  TIP3      OH2            20.3599212443       27.4465554002       21.9986348539  TIP3      2851            0.0000000000
     33452      3051  TIP3      H1             20.8664097203       27.1438687821       21.2110668681  TIP3      2851            0.0000000000
     33453      3051  TIP3      H2             19.4756753973       27.2172732167       21.7035810692  TIP3      2851            0.0000000000
     33454      3052  TIP3      OH2            25.9770965982       30.0961752300       26.1786094563  TIP3      2852            0.0000000000
     33455      3052  TIP3      H1             25.5367054627       30.9606297692       26.3197253644  TIP3      2852            0.0000000000
     33456      3052  TIP3      H2             25.3826204567       29.4945232031       26.6550570509  TIP3      2852            0.0000000000
     33457      3053  TIP3      OH2            26.4555127740       34.1638823186       33.2385883157  TIP3      2853            0.0000000000
     33458      3053  TIP3      H1             26.9682816692       34.9620493789       33.0110334780  TIP3      2853            0.0000000000
     33459      3053  TIP3      H2             27.1646816002       33.5639428689       33.5439406729  TIP3      2853            0.0000000000
     33460      3054  TIP3      OH2            24.6801940166       34.6587685264       25.8150685085  TIP3      2854            0.0000000000
     33461      3054  TIP3      H1             23.8264020094       35.0279148818       26.1073827335  TIP3      2854            0.0000000000
     33462      3054  TIP3      H2             25.2374273755       35.4555586643       25.8946644250  TIP3      2854            0.0000000000
     33463      3055  TIP3      OH2            29.6099246325       30.1520525199       32.4518688563  TIP3      2855            0.0000000000
     33464      3055  TIP3      H1             29.1724717406       30.0021797100       33.3263689844  TIP3      2855            0.0000000000
     33465      3055  TIP3      H2             30.2273397892       29.4041776776       32.4687915051  TIP3      2855            0.0000000000
     33466      3056  TIP3      OH2            32.3185555630       31.4620366409       21.8875757283  TIP3      2856            0.0000000000
     33467      3056  TIP3      H1             32.5006058582       30.8099858059       22.6081954526  TIP3      2856            0.0000000000
     33468      3056  TIP3      H2             31.3674480892       31.3247528427       21.8935173957  TIP3      2856            0.0000000000
     33469      3057  TIP3      OH2            32.5102352442       34.7852195939       34.9280919986  TIP3      2857            0.0000000000
     33470      3057  TIP3      H1             31.7695365887       34.2094315727       34.6251875583  TIP3      2857            0.0000000000
     33471      3057  TIP3      H2             32.6824117067       35.4105109282       34.2031588272  TIP3      2857            0.0000000000
     33472      3058  TIP3      OH2            36.7514114208       35.1345627971       21.5604457263  TIP3      2858            0.0000000000
     33473      3058  TIP3      H1             37.2564737730       35.9321120553       21.3665119923  TIP3      2858            0.0000000000
     33474      3058  TIP3      H2             35.9184496658       35.5388427671       21.8686966351  TIP3      2858            0.0000000000
     33475      3059  TIP3      OH2            21.0024327222       21.9797579096       34.2214291411  TIP3      2859            0.0000000000
     33476      3059  TIP3      H1             20.1898172519       22.4452294747       34.4677561114  TIP3      2859            0.0000000000
     33477      3059  TIP3      H2             20.8808843897       21.1256332867       34.6880624836  TIP3      2859            0.0000000000
     33478      3060  TIP3      OH2            33.0647157126       29.8982279160       23.7972309640  TIP3      2860            0.0000000000
     33479      3060  TIP3      H1             32.7777716729       29.0160894305       24.1148751461  TIP3      2860            0.0000000000
     33480      3060  TIP3      H2             34.0191895411       29.8387466323       24.0159841259  TIP3      2860            0.0000000000
     33481      3061  TIP3      OH2            20.6045470406       33.5740944908       32.8413263615  TIP3      2861            0.0000000000
     33482      3061  TIP3      H1             21.1212010601       32.7597925653       32.7350525307  TIP3      2861            0.0000000000
     33483      3061  TIP3      H2             21.1641049583       34.0514775080       33.4763270392  TIP3      2861            0.0000000000
     33484      3062  TIP3      OH2            29.5658100899       21.7587647437       33.5621562477  TIP3      2862            0.0000000000
     33485      3062  TIP3      H1             30.4312712507       21.9442390749       33.9886321225  TIP3      2862            0.0000000000
     33486      3062  TIP3      H2             29.3548718217       20.8445639824       33.8206327303  TIP3      2862            0.0000000000
     33487      3063  TIP3      OH2            30.0526255329       21.4424262747       24.6814530434  TIP3      2863            0.0000000000
     33488      3063  TIP3      H1             30.7809072362       20.9924870403       24.2219363537  TIP3      2863            0.0000000000
     33489      3063  TIP3      H2             30.5107008046       21.5898020029       25.5355489859  TIP3      2863            0.0000000000
     33490      3064  TIP3      OH2            27.2847187302       23.0803289494       25.0509882486  TIP3      2864            0.0000000000
     33491      3064  TIP3      H1             28.1429024462       23.5104324220       25.1966732657  TIP3      2864            0.0000000000
     33492      3064  TIP3      H2             27.1299831059       22.6439413928       25.9025342913  TIP3      2864            0.0000000000
     33493      3065  TIP3      OH2            28.4954711289       24.3787746366       34.1635940308  TIP3      2865            0.0000000000
     33494      3065  TIP3      H1             28.4173649946       24.6087394906       35.1135176681  TIP3      2865            0.0000000000
     33495      3065  TIP3      H2             28.9799893153       23.5254732093       34.1657822227  TIP3      2865            0.0000000000
     33496      3066  TIP3      OH2            28.2046933225       19.8784772268       26.2184499965  TIP3      2866            0.0000000000
     33497      3066  TIP3      H1             27.6577435016       20.5237013200       26.7184413645  TIP3      2866            0.0000000000
     33498      3066  TIP3      H2             28.8968612756       20.4522403496       25.8267692974  TIP3      2866            0.0000000000
     33499      3067  TIP3      OH2            24.0052314353       21.1466680388       23.2015247753  TIP3      2867            0.0000000000
     33500      3067  TIP3      H1             23.8938602721       22.1048740351       23.2907686986  TIP3      2867            0.0000000000
     33501      3067  TIP3      H2             24.9693979788       21.0431074248       23.2587972566  TIP3      2867            0.0000000000
     33502      3068  TIP3      OH2            33.9418392750       22.0920168108       35.4726168980  TIP3      2868            0.0000000000
     33503      3068  TIP3      H1             33.0894134897       22.2562161470       35.0129101481  TIP3      2868            0.0000000000
     33504      3068  TIP3      H2             34.5816052171       22.1957633836       34.7432692557  TIP3      2868            0.0000000000
     33505      3069  TIP3      OH2            32.8378510299       26.1317187168       28.9109853584  TIP3      2869            0.0000000000
     33506      3069  TIP3      H1             32.0343877290       25.5765702175       28.9127181080  TIP3      2869            0.0000000000
     33507      3069  TIP3      H2             33.3517882782       25.6168993796       29.5690029544  TIP3      2869            0.0000000000
     33508      3070  TIP3      OH2            20.1904484764       24.5938031786       20.7776416255  TIP3      2870            0.0000000000
     33509      3070  TIP3      H1             21.0345234426       25.0704018700       20.6569770413  TIP3      2870            0.0000000000
     33510      3070  TIP3      H2             20.0460981321       24.3461901856       19.8391658706  TIP3      2870            0.0000000000
     33511      3071  TIP3      OH2            34.2560731276       35.4769710549       31.0428221516  TIP3      2871            0.0000000000
     33512      3071  TIP3      H1             34.0261594368       35.9038820631       30.1843877052  TIP3      2871            0.0000000000
     33513      3071  TIP3      H2             35.2069491141       35.2982418219       30.8951152941  TIP3      2871            0.0000000000
     33514      3072  TIP3      OH2            21.3282087132       19.2142029680       29.8054874417  TIP3      2872            0.0000000000
     33515      3072  TIP3      H1             21.3676209791       19.0929034646       28.8342949470  TIP3      2872            0.0000000000
     33516      3072  TIP3      H2             21.1329558469       18.3002300523       30.1027987624  TIP3      2872            0.0000000000
     33517      3073  TIP3      OH2            20.0101791981       32.8861943671       25.8771465053  TIP3      2873            0.0000000000
     33518      3073  TIP3      H1             19.3745828262       33.5224669608       26.2643293518  TIP3      2873            0.0000000000
     33519      3073  TIP3      H2             20.1533075112       33.3152238263       25.0106340000  TIP3      2873            0.0000000000
     33520      3074  TIP3      OH2            19.5472664669       35.8630411553       37.0964108478  TIP3      2874            0.0000000000
     33521      3074  TIP3      H1             20.4361278582       35.8119915032       37.4895170020  TIP3      2874            0.0000000000
     33522      3074  TIP3      H2             19.2670692789       34.9225755407       37.1013688750  TIP3      2874            0.0000000000
     33523      3075  TIP3      OH2            24.3401754400       34.4076811543       38.6015113880  TIP3      2875            0.0000000000
     33524      3075  TIP3      H1             25.3049327018       34.4186311311       38.6477038138  TIP3      2875            0.0000000000
     33525      3075  TIP3      H2             24.1615704358       34.0673148279       37.7012811479  TIP3      2875            0.0000000000
     33526      3076  TIP3      OH2            30.5990747238       33.2316222710       37.5163559720  TIP3      2876            0.0000000000
     33527      3076  TIP3      H1             30.2371461224       32.3551202036       37.7754680825  TIP3      2876            0.0000000000
     33528      3076  TIP3      H2             31.3942031835       33.2636724005       38.0826401986  TIP3      2876            0.0000000000
     33529      3077  TIP3      OH2            19.3020179822       29.4760807463       37.9792996864  TIP3      2877            0.0000000000
     33530      3077  TIP3      H1             18.8946568341       28.5974902139       38.0540926680  TIP3      2877            0.0000000000
     33531      3077  TIP3      H2             18.7530930569       29.8608467827       37.2615248568  TIP3      2877            0.0000000000
     33532      3078  TIP3      OH2            26.1189500000       29.4669695646       37.2538410702  TIP3      2878            0.0000000000
     33533      3078  TIP3      H1             25.8583530799       29.9820987328       36.4629905343  TIP3      2878            0.0000000000
     33534      3078  TIP3      H2             25.8839480957       28.5365362945       37.0139468134  TIP3      2878            0.0000000000
     33535      3079  TIP3      OH2            31.8429016472       29.1786651241       34.9550009633  TIP3      2879            0.0000000000
     33536      3079  TIP3      H1             32.7362423535       29.5850827449       35.0491698993  TIP3      2879            0.0000000000
     33537      3079  TIP3      H2             31.3180868571       29.9931090046       35.0760859638  TIP3      2879            0.0000000000
     33538      3080  TIP3      OH2            20.6612855531       26.5658090165       37.8788492300  TIP3      2880            0.0000000000
     33539      3080  TIP3      H1             21.5339720240       26.1646990925       37.7951267465  TIP3      2880            0.0000000000
     33540      3080  TIP3      H2             20.8263210442       27.1557494776       38.6477066796  TIP3      2880            0.0000000000
     33541      3081  TIP3      OH2            24.9811092919       27.5910400408       22.6610539641  TIP3      2881            0.0000000000
     33542      3081  TIP3      H1             24.3345928075       27.3222493085       23.3343727345  TIP3      2881            0.0000000000
     33543      3081  TIP3      H2             24.7345016141       26.9614206228       21.9542360917  TIP3      2881            0.0000000000
     33544      3082  TIP3      OH2            24.2466875914       25.6184708571       34.6213203897  TIP3      2882            0.0000000000
     33545      3082  TIP3      H1             23.6794844404       26.4079955664       34.7244303575  TIP3      2882            0.0000000000
     33546      3082  TIP3      H2             24.9300198807       25.9683391125       34.0237191503  TIP3      2882            0.0000000000
     33547      3083  TIP3      OH2            25.9989075711       26.0226877441       20.2704857747  TIP3      2883            0.0000000000
     33548      3083  TIP3      H1             25.9498137336       26.0341827022       19.2964568303  TIP3      2883            0.0000000000
     33549      3083  TIP3      H2             26.7441988828       26.6019088055       20.4610219933  TIP3      2883            0.0000000000
     33550      3084  TIP3      OH2            29.5523763585       28.4254662467       38.1781973578  TIP3      2884            0.0000000000
     33551      3084  TIP3      H1             30.1970486022       28.0724630590       37.5434687900  TIP3      2884            0.0000000000
     33552      3084  TIP3      H2             29.3902071111       27.6338358576       38.7305738124  TIP3      2884            0.0000000000
     33553      3085  TIP3      OH2            24.6570022179       22.9625554890       35.4947973055  TIP3      2885            0.0000000000
     33554      3085  TIP3      H1             24.9898283345       22.3588490337       34.7887604002  TIP3      2885            0.0000000000
     33555      3085  TIP3      H2             24.5686381745       23.8196024499       35.0363223728  TIP3      2885            0.0000000000
     33556      3086  TIP3      OH2            25.2710106192       21.2366911204       33.4455982159  TIP3      2886            0.0000000000
     33557      3086  TIP3      H1             25.7318974280       21.7228706614       32.7120072925  TIP3      2886            0.0000000000
     33558      3086  TIP3      H2             24.3558557793       21.2038282655       33.0961392312  TIP3      2886            0.0000000000
     33559      3087  TIP3      OH2            26.3956559317       27.1359015112       33.4704811925  TIP3      2887            0.0000000000
     33560      3087  TIP3      H1             27.2444404447       27.5885163392       33.3974884149  TIP3      2887            0.0000000000
     33561      3087  TIP3      H2             25.8145195851       27.7782277610       33.0137266431  TIP3      2887            0.0000000000
     33562      3088  TIP3      OH2            31.3464610151       24.3450059974       38.4489261210  TIP3      2888            0.0000000000
     33563      3088  TIP3      H1             31.9225069077       23.5750693426       38.3789394872  TIP3      2888            0.0000000000
     33564      3088  TIP3      H2             31.9413627384       25.0063091717       38.8208708965  TIP3      2888            0.0000000000
     33565      3089  TIP3      OH2            32.2138627857       27.6543147615       37.1325714583  TIP3      2889            0.0000000000
     33566      3089  TIP3      H1             32.0616382029       28.1878878441       36.3213031994  TIP3      2889            0.0000000000
     33567      3089  TIP3      H2             33.1542568016       27.4163691220       37.0023225621  TIP3      2889            0.0000000000
     33568      3090  TIP3      OH2            23.2675959293       24.0851084900       37.6818312849  TIP3      2890            0.0000000000
     33569      3090  TIP3      H1             22.4125150177       23.6098422220       37.6503060578  TIP3      2890            0.0000000000
     33570      3090  TIP3      H2             23.6997457565       23.7690037663       36.8597799817  TIP3      2890            0.0000000000
     33571      3091  TIP3      OH2            26.1338935227       18.7759322716       33.5056865190  TIP3      2891            0.0000000000
     33572      3091  TIP3      H1             25.8416440217       19.7148332783       33.5471849304  TIP3      2891            0.0000000000
     33573      3091  TIP3      H2             25.3020070272       18.3494428859       33.2417329930  TIP3      2891            0.0000000000
     33574      3092  TIP3      OH2            27.1423303580       22.9672592003       37.6913678333  TIP3      2892            0.0000000000
     33575      3092  TIP3      H1             26.6017208387       22.7782999533       38.4863640475  TIP3      2892            0.0000000000
     33576      3092  TIP3      H2             26.5335976331       22.7148373421       36.9894151407  TIP3      2892            0.0000000000
     33577      3093  TIP3      OH2            29.8348585891       22.1959632667       36.8161036608  TIP3      2893            0.0000000000
     33578      3093  TIP3      H1             28.9020797526       22.2008837523       37.1022666341  TIP3      2893            0.0000000000
     33579      3093  TIP3      H2             30.2781123722       21.8060285278       37.6019013954  TIP3      2893            0.0000000000
     33580      3094  TIP3      OH2            31.6916033144       21.0500019799       38.4668840227  TIP3      2894            0.0000000000
     33581      3094  TIP3      H1             31.6274704566       20.0702107212       38.4115385682  TIP3      2894            0.0000000000
     33582      3094  TIP3      H2             31.4955421575       21.2257467140       39.4117533744  TIP3      2894            0.0000000000
     33583      3095  TIP3      OH2            21.1996314065       22.1569903986       37.7674946973  TIP3      2895            0.0000000000
     33584      3095  TIP3      H1             21.0964853642       21.3817416694       37.1899759095  TIP3      2895            0.0000000000
     33585      3095  TIP3      H2             21.0710541531       21.7743356012       38.6720352981  TIP3      2895            0.0000000000
     33586      3096  TIP3      OH2            25.7255875600       18.4207278518       36.1685255166  TIP3      2896            0.0000000000
     33587      3096  TIP3      H1             26.5397415055       17.9497385468       36.4385314664  TIP3      2896            0.0000000000
     33588      3096  TIP3      H2             25.8524705408       18.4358713857       35.2040111696  TIP3      2896            0.0000000000
     33589      3097  TIP3      OH2            26.4161927632       20.1348920403       38.7700880138  TIP3      2897            0.0000000000
     33590      3097  TIP3      H1             25.8836341404       19.4802325549       38.2884201013  TIP3      2897            0.0000000000
     33591      3097  TIP3      H2             25.7149728867       20.7662757588       39.0354035114  TIP3      2897            0.0000000000
     33592      3098  TIP3      OH2            18.2968489458       36.6111139583       26.2169752753  TIP3      2898            0.0000000000
     33593      3098  TIP3      H1             17.6366664651       36.2025937055       25.6178720464  TIP3      2898            0.0000000000
     33594      3098  TIP3      H2             18.1988062559       36.0200427396       26.9815292438  TIP3      2898            0.0000000000
     33595      3099  TIP3      OH2            19.1511747430       34.6552649743       28.2246875547  TIP3      2899            0.0000000000
     33596      3099  TIP3      H1             18.5275624804       34.0575151998       28.6793435843  TIP3      2899            0.0000000000
     33597      3099  TIP3      H2             19.8930896063       34.6809037053       28.8639152649  TIP3      2899            0.0000000000
     33598      3100  TIP3      OH2            37.0782709046       35.2890101449       31.0309081657  TIP3      2900            0.0000000000
     33599      3100  TIP3      H1             37.3093336701       35.5306786090       31.9408386640  TIP3      2900            0.0000000000
     33600      3100  TIP3      H2             36.9604156730       36.1887708948       30.6770138280  TIP3      2900            0.0000000000
     33601      3101  TIP3      OH2            36.2570992671       35.0375935243       34.0506402639  TIP3      2901            0.0000000000
     33602      3101  TIP3      H1             35.7410934239       34.3672900091       33.5545611898  TIP3      2901            0.0000000000
     33603      3101  TIP3      H2             36.8594959441       34.4456948872       34.5271635269  TIP3      2901            0.0000000000
     33604      3102  TIP3      OH2            34.4564019828       31.1298633630       38.6810302839  TIP3      2902            0.0000000000
     33605      3102  TIP3      H1             33.7314383188       31.2552542831       39.3297788855  TIP3      2902            0.0000000000
     33606      3102  TIP3      H2             34.9991870158       31.9187249073       38.8273187885  TIP3      2902            0.0000000000
     33607      3103  TIP3      OH2            35.6613940487       29.2177948428       24.3127967968  TIP3      2903            0.0000000000
     33608      3103  TIP3      H1             36.5141369353       29.6227747171       24.4932540389  TIP3      2903            0.0000000000
     33609      3103  TIP3      H2             35.7003699909       28.4322620059       24.8972340796  TIP3      2903            0.0000000000
     33610      3104  TIP3      OH2            36.3718406722       27.3016500367       26.0181375128  TIP3      2904            0.0000000000
     33611      3104  TIP3      H1             35.4372763874       27.0229145199       26.1527811840  TIP3      2904            0.0000000000
     33612      3104  TIP3      H2             36.6801628275       27.3557405458       26.9371912100  TIP3      2904            0.0000000000
     33613      3105  TIP3      OH2            36.3721273941       29.8572307875       30.9768426581  TIP3      2905            0.0000000000
     33614      3105  TIP3      H1             37.2431396906       29.6871954264       30.5873670678  TIP3      2905            0.0000000000
     33615      3105  TIP3      H2             36.3191454150       30.8011464342       30.6939159505  TIP3      2905            0.0000000000
     33616      3106  TIP3      OH2            34.7747873801       32.9504047291       33.2544657057  TIP3      2906            0.0000000000
     33617      3106  TIP3      H1             34.0065774727       33.2815609082       33.7485871239  TIP3      2906            0.0000000000
     33618      3106  TIP3      H2             34.3998654405       32.8827747471       32.3478024967  TIP3      2906            0.0000000000
     33619      3107  TIP3      OH2            35.1796737743       24.2863117726       20.9431702590  TIP3      2907            0.0000000000
     33620      3107  TIP3      H1             34.6724977424       24.9843601634       20.5139065737  TIP3      2907            0.0000000000
     33621      3107  TIP3      H2             34.6354698989       23.4860604393       20.7570124439  TIP3      2907            0.0000000000
     33622      3108  TIP3      OH2            34.0561629246       25.9337441101       26.5433001211  TIP3      2908            0.0000000000
     33623      3108  TIP3      H1             33.9150327529       25.0049538845       26.2380227867  TIP3      2908            0.0000000000
     33624      3108  TIP3      H2             33.7544834442       25.9010619982       27.4793114221  TIP3      2908            0.0000000000
     33625      3109  TIP3      OH2            19.1913117736       28.1427241783       30.7329417536  TIP3      2909            0.0000000000
     33626      3109  TIP3      H1             19.2810567157       27.9101029063       29.7732923883  TIP3      2909            0.0000000000
     33627      3109  TIP3      H2             20.0644977199       27.7838880887       31.0328552577  TIP3      2909            0.0000000000
     33628      3110  TIP3      OH2            35.0618468626       27.8444889209       36.3606210613  TIP3      2910            0.0000000000
     33629      3110  TIP3      H1             35.7019718159       27.1419504855       36.1320895935  TIP3      2910            0.0000000000
     33630      3110  TIP3      H2             35.5553217009       28.6572089047       36.1320387716  TIP3      2910            0.0000000000
     33631      3111  TIP3      OH2            36.5154548832       25.6725298118       36.5134652723  TIP3      2911            0.0000000000
     33632      3111  TIP3      H1             35.5504257149       25.5550905485       36.6704492449  TIP3      2911            0.0000000000
     33633      3111  TIP3      H2             36.7841210126       24.7413033712       36.6972420624  TIP3      2911            0.0000000000
     33634      3112  TIP3      OH2            33.5431683140       22.0947242274       20.5211925575  TIP3      2912            0.0000000000
     33635      3112  TIP3      H1             34.1267567371       21.3657955168       20.8095640294  TIP3      2912            0.0000000000
     33636      3112  TIP3      H2             33.4705990971       21.8369039117       19.5926471368  TIP3      2912            0.0000000000
     33637      3113  TIP3      OH2            34.0027988125       23.5315246817       25.2256044901  TIP3      2913            0.0000000000
     33638      3113  TIP3      H1             34.0306707278       22.5583544050       25.0777806528  TIP3      2913            0.0000000000
     33639      3113  TIP3      H2             34.6395918861       23.8540030326       24.5423306417  TIP3      2913            0.0000000000
     33640      3114  TIP3      OH2            33.9699265524       24.4120623748       30.6009706468  TIP3      2914            0.0000000000
     33641      3114  TIP3      H1             34.9265809878       24.2654631502       30.4577891269  TIP3      2914            0.0000000000
     33642      3114  TIP3      H2             33.9095546551       24.2580369198       31.5573926326  TIP3      2914            0.0000000000
     33643      3115  TIP3      OH2            34.5056871329       24.6379666432       33.4496140033  TIP3      2915            0.0000000000
     33644      3115  TIP3      H1             33.6406913441       25.0390159474       33.6783385682  TIP3      2915            0.0000000000
     33645      3115  TIP3      H2             34.9104225161       25.4020385056       32.9839501356  TIP3      2915            0.0000000000
     33646      3116  TIP3      OH2            18.9234678144       23.2031907498       36.7621850590  TIP3      2916            0.0000000000
     33647      3116  TIP3      H1             19.7475883510       23.0692996929       37.2629654086  TIP3      2916            0.0000000000
     33648      3116  TIP3      H2             18.4451061425       22.3546516459       36.8894078802  TIP3      2916            0.0000000000
     33649      3117  TIP3      OH2            36.6262099563       18.6011886907       38.5119501209  TIP3      2917            0.0000000000
     33650      3117  TIP3      H1             37.1655650251       18.0340271924       37.9442527320  TIP3      2917            0.0000000000
     33651      3117  TIP3      H2             36.5320651649       19.3965559028       37.9400354188  TIP3      2917            0.0000000000
     33652      3118  TIP3      OH2            34.0611413017       20.8242118323       25.0457762466  TIP3      2918            0.0000000000
     33653      3118  TIP3      H1             34.2703813118       20.3694899874       25.8878562365  TIP3      2918            0.0000000000
     33654      3118  TIP3      H2             34.3588630177       20.1694545342       24.3939909371  TIP3      2918            0.0000000000
     33655      3119  TIP3      OH2            20.0491150229       21.5648462441       30.2827271403  TIP3      2919            0.0000000000
     33656      3119  TIP3      H1             20.4146089761       20.6531721506       30.2355639352  TIP3      2919            0.0000000000
     33657      3119  TIP3      H2             20.8535903490       22.1180433838       30.2908848736  TIP3      2919            0.0000000000
     33658      3120  TIP3      OH2            18.5730517342       24.6424105773       30.9439804391  TIP3      2920            0.0000000000
     33659      3120  TIP3      H1             19.0480787121       24.4579349752       30.1061322166  TIP3      2920            0.0000000000
     33660      3120  TIP3      H2             19.0429027859       25.4428644591       31.2086794105  TIP3      2920            0.0000000000
     33661      3121  TIP3      OH2            36.0985474203       20.7624523298       37.1226281493  TIP3      2921            0.0000000000
     33662      3121  TIP3      H1             35.3171543589       21.3242658505       37.3793032236  TIP3      2921            0.0000000000
     33663      3121  TIP3      H2             35.8343013034       20.4852641440       36.2302376722  TIP3      2921            0.0000000000
     33664      3122  TIP3      OH2            18.4334522850       20.6871483413       24.5531370231  TIP3      2922            0.0000000000
     33665      3122  TIP3      H1             17.5263227396       20.9935098216       24.7403042990  TIP3      2922            0.0000000000
     33666      3122  TIP3      H2             18.7500657817       21.3403236405       23.8968187154  TIP3      2922            0.0000000000
     33667      3123  TIP3      OH2            33.1782163259       35.6173978789       26.4609745459  TIP3      2923            0.0000000000
     33668      3123  TIP3      H1             33.8507345497       35.6381903502       25.7446002174  TIP3      2923            0.0000000000
     33669      3123  TIP3      H2             33.6420640868       36.0707517370       27.1921102109  TIP3      2923            0.0000000000
     33670      3124  TIP3      OH2            18.7316558882       19.3445941226       33.0758844570  TIP3      2924            0.0000000000
     33671      3124  TIP3      H1             18.1600859860       19.1093969564       33.8296189156  TIP3      2924            0.0000000000
     33672      3124  TIP3      H2             18.2276717485       20.0449318935       32.6238817323  TIP3      2924            0.0000000000
     33673      3125  TIP3      OH2            20.9074608206       32.3684533095       37.0825019995  TIP3      2925            0.0000000000
     33674      3125  TIP3      H1             20.0469498470       32.3282258096       36.6403278661  TIP3      2925            0.0000000000
     33675      3125  TIP3      H2             20.6809508386       32.5744514285       37.9938086953  TIP3      2925            0.0000000000
     33676      3126  TIP3      OH2            23.8065082253       33.8167124739       33.6835723773  TIP3      2926            0.0000000000
     33677      3126  TIP3      H1             23.7585448977       34.7738274877       33.4618828826  TIP3      2926            0.0000000000
     33678      3126  TIP3      H2             24.7828224588       33.7791033730       33.7893134062  TIP3      2926            0.0000000000
     33679      3127  TIP3      OH2            28.3251618760       34.8004530900       36.1580095735  TIP3      2927            0.0000000000
     33680      3127  TIP3      H1             28.1588727231       34.6414025367       37.1100233603  TIP3      2927            0.0000000000
     33681      3127  TIP3      H2             29.0971156514       35.3987634398       36.1988829403  TIP3      2927            0.0000000000
     33682      3128  TIP3      OH2            30.5238313010       36.6427176687       35.7535724491  TIP3      2928            0.0000000000
     33683      3128  TIP3      H1             31.2662142503       36.0987849459       35.4433691604  TIP3      2928            0.0000000000
     33684      3128  TIP3      H2             30.7583319955       36.6833679901       36.7091039880  TIP3      2928            0.0000000000
     33685      3129  TIP3      OH2            35.1860207072       18.8975484954       35.0594390650  TIP3      2929            0.0000000000
     33686      3129  TIP3      H1             34.4017183589       19.2655253363       34.6179631735  TIP3      2929            0.0000000000
     33687      3129  TIP3      H2             35.2736102346       18.0283987955       34.6207994916  TIP3      2929            0.0000000000
     33688      3130  TIP3      OH2            21.0072821518       37.0723424420       33.3714345869  TIP3      2930            0.0000000000
     33689      3130  TIP3      H1             20.1038343332       37.0679534870       32.9794591752  TIP3      2930            0.0000000000
     33690      3130  TIP3      H2             20.7753704999       36.9984410630       34.3062431313  TIP3      2930            0.0000000000
     33691      3131  TIP3      OH2            23.5300565957       36.3233446610       32.9010817079  TIP3      2931            0.0000000000
     33692      3131  TIP3      H1             22.6467888528       36.7263437034       33.1273855094  TIP3      2931            0.0000000000
     33693      3131  TIP3      H2             23.6765204711       36.7345007734       32.0284392313  TIP3      2931            0.0000000000
     33694      3132  TIP3      OH2            28.3826298858       36.2497304327       31.6896414317  TIP3      2932            0.0000000000
     33695      3132  TIP3      H1             27.7108028702       36.4846398850       31.0112607639  TIP3      2932            0.0000000000
     33696      3132  TIP3      H2             28.4524996895       37.0857515160       32.1865880240  TIP3      2932            0.0000000000
     33697      3133  TIP3      OH2            30.3618050374       34.8151028549       32.9524332648  TIP3      2933            0.0000000000
     33698      3133  TIP3      H1             29.6416182324       35.3776696650       32.6060508481  TIP3      2933            0.0000000000
     33699      3133  TIP3      H2             31.1133622589       35.3926817963       32.7724944691  TIP3      2933            0.0000000000
     33700      3134  TIP3      OH2            32.9133676490       37.0711593472       32.8051057134  TIP3      2934            0.0000000000
     33701      3134  TIP3      H1             32.8166371611       37.9165251578       32.3305232139  TIP3      2934            0.0000000000
     33702      3134  TIP3      H2             33.4135755552       36.5218134250       32.1549371034  TIP3      2934            0.0000000000
     33703      3135  TIP3      OH2            20.7884667147       34.9269652386       30.3666943244  TIP3      2935            0.0000000000
     33704      3135  TIP3      H1             20.6373374741       34.4292188654       31.1982557106  TIP3      2935            0.0000000000
     33705      3135  TIP3      H2             21.6651443751       34.5764017561       30.0806666536  TIP3      2935            0.0000000000
     33706      3136  TIP3      OH2            23.0366628870       34.3138940224       29.1288450769  TIP3      2936            0.0000000000
     33707      3136  TIP3      H1             22.9887085473       33.3444592225       29.2578785485  TIP3      2936            0.0000000000
     33708      3136  TIP3      H2             23.9345058522       34.4801313901       29.4978070860  TIP3      2936            0.0000000000
     33709      3137  TIP3      OH2            25.2922857554       34.2792337705       30.5012588788  TIP3      2937            0.0000000000
     33710      3137  TIP3      H1             25.5381337744       33.3416783969       30.3870360796  TIP3      2937            0.0000000000
     33711      3137  TIP3      H2             25.3887416243       34.4217737469       31.4615088782  TIP3      2937            0.0000000000
     33712      3138  TIP3      OH2            29.7060707374       20.2753258356       28.8906997997  TIP3      2938            0.0000000000
     33713      3138  TIP3      H1             29.0116745798       20.0636763828       29.5188389363  TIP3      2938            0.0000000000
     33714      3138  TIP3      H2             29.1982284614       20.3956304248       28.0743385076  TIP3      2938            0.0000000000
     33715      3139  TIP3      OH2            33.6588060438       18.4209103459       29.2482322950  TIP3      2939            0.0000000000
     33716      3139  TIP3      H1             34.2674351162       18.9318658615       28.6576279665  TIP3      2939            0.0000000000
     33717      3139  TIP3      H2             33.0263211948       18.1039061106       28.5974061950  TIP3      2939            0.0000000000
     33718      3140  TIP3      OH2            35.1248878226       19.9677467520       27.5122424679  TIP3      2940            0.0000000000
     33719      3140  TIP3      H1             35.7462666619       19.2997734425       27.1363597826  TIP3      2940            0.0000000000
     33720      3140  TIP3      H2             35.7846538290       20.6351849625       27.8041416735  TIP3      2940            0.0000000000
     33721      3141  TIP3      OH2            21.2367798784       18.9677015739       27.0269444802  TIP3      2941            0.0000000000
     33722      3141  TIP3      H1             20.3773875932       18.9592253972       26.5865859267  TIP3      2941            0.0000000000
     33723      3141  TIP3      H2             21.5703435588       18.0607786969       26.8287545939  TIP3      2941            0.0000000000
     33724      3142  TIP3      OH2            19.8042445565       18.8807188918       22.5709554418  TIP3      2942            0.0000000000
     33725      3142  TIP3      H1             19.3865628381       19.5170521845       21.9586656854  TIP3      2942            0.0000000000
     33726      3142  TIP3      H2             19.3256170795       19.1037537615       23.3826928301  TIP3      2942            0.0000000000
     33727      3143  TIP3      OH2            25.2192246862       18.6601467997       26.8155935800  TIP3      2943            0.0000000000
     33728      3143  TIP3      H1             25.8982787844       19.0740851691       26.2647489794  TIP3      2943            0.0000000000
     33729      3143  TIP3      H2             25.5502870332       18.8007526881       27.7205984953  TIP3      2943            0.0000000000
     33730      3144  TIP3      OH2            20.0741999818       34.7123494419       23.8491797852  TIP3      2944            0.0000000000
     33731      3144  TIP3      H1             19.2529055223       34.6098419057       23.3352282251  TIP3      2944            0.0000000000
     33732      3144  TIP3      H2             20.5068704728       35.4238962228       23.3580215303  TIP3      2944            0.0000000000
     33733      3145  TIP3      OH2            26.8860947127       20.6649387259       23.5748528773  TIP3      2945            0.0000000000
     33734      3145  TIP3      H1             27.4204390205       20.1738576187       24.2209505553  TIP3      2945            0.0000000000
     33735      3145  TIP3      H2             26.9912738312       21.5904054704       23.8755231198  TIP3      2945            0.0000000000
     33736      3146  TIP3      OH2            35.2719203229       35.3548395532       24.8319690399  TIP3      2946            0.0000000000
     33737      3146  TIP3      H1             35.1509028184       34.4497248528       24.4847477331  TIP3      2946            0.0000000000
     33738      3146  TIP3      H2             35.2359667627       35.8624728246       23.9855286284  TIP3      2946            0.0000000000
     33739      3147  TIP3      OH2            20.6457861825       19.6743979097       36.0277317911  TIP3      2947            0.0000000000
     33740      3147  TIP3      H1             20.2053334341       18.8263882246       36.2246930974  TIP3      2947            0.0000000000
     33741      3147  TIP3      H2             21.3803765558       19.5710561284       36.6960613230  TIP3      2947            0.0000000000
     33742      3148  TIP3      OH2            22.5383209980       18.8672686213       37.6374692100  TIP3      2948            0.0000000000
     33743      3148  TIP3      H1             23.4007197394       18.7495842386       37.2213015264  TIP3      2948            0.0000000000
     33744      3148  TIP3      H2             22.7830763478       18.5808102782       38.5495853742  TIP3      2948            0.0000000000
     33745      3149  TIP3      OH2            31.4982526791       18.2962438742       38.2877850161  TIP3      2949            0.0000000000
     33746      3149  TIP3      H1             31.4290405206       17.8947788215       39.1810808058  TIP3      2949            0.0000000000
     33747      3149  TIP3      H2             32.3362976301       17.8880710774       37.9847333678  TIP3      2949            0.0000000000
     33748      3150  TIP3      OH2            34.4316663748       34.1159320013       36.9018113895  TIP3      2950            0.0000000000
     33749      3150  TIP3      H1             33.7459449152       34.3367563875       36.2329039490  TIP3      2950            0.0000000000
     33750      3150  TIP3      H2             34.6654010435       35.0019034843       37.2183239577  TIP3      2950            0.0000000000
     33751      3151  TIP3      OH2            37.4809304926       24.7020556914       25.7456344433  TIP3      2951            0.0000000000
     33752      3151  TIP3      H1             37.1500776360       25.6172486390       25.7864619673  TIP3      2951            0.0000000000
     33753      3151  TIP3      H2             37.0074395283       24.4052658299       24.9483884963  TIP3      2951            0.0000000000
     33754      3152  TIP3      OH2            37.3390785890       29.4344776705       33.5776718439  TIP3      2952            0.0000000000
     33755      3152  TIP3      H1             36.8874056794       29.3409148377       32.7110295234  TIP3      2952            0.0000000000
     33756      3152  TIP3      H2             37.4256464213       28.5107996222       33.9023442803  TIP3      2952            0.0000000000
     33757      3153  TIP3      OH2            37.1880798809       32.1873979186       30.2791749938  TIP3      2953            0.0000000000
     33758      3153  TIP3      H1             38.1092759742       32.1984986273       29.9439567130  TIP3      2953            0.0000000000
     33759      3153  TIP3      H2             37.1843320082       32.9956142745       30.8179669191  TIP3      2953            0.0000000000
     33760      3154  TIP3      OH2            37.1611544366       21.8014676848       27.6188827598  TIP3      2954            0.0000000000
     33761      3154  TIP3      H1             37.8622696564       22.4846742114       27.5367919613  TIP3      2954            0.0000000000
     33762      3154  TIP3      H2             36.9664865764       21.6253135914       26.6748806221  TIP3      2954            0.0000000000
     33763      3155  TIP3      OH2            37.4987677490       26.9372710638       34.3821863243  TIP3      2955            0.0000000000
     33764      3155  TIP3      H1             37.4227860264       26.3911152085       35.1870980795  TIP3      2955            0.0000000000
     33765      3155  TIP3      H2             36.7050552640       26.6543414063       33.8934965949  TIP3      2955            0.0000000000
     33766      3156  TIP3      OH2            37.8554605785       29.1049061938       37.7067915876  TIP3      2956            0.0000000000
     33767      3156  TIP3      H1             37.7198304891       28.1547733747       37.6068653923  TIP3      2956            0.0000000000
     33768      3156  TIP3      H2             37.1808292060       29.4939008383       37.0998216632  TIP3      2956            0.0000000000
     33769      3157  TIP3      OH2            36.5572944300       36.8851637852       26.7802377142  TIP3      2957            0.0000000000
     33770      3157  TIP3      H1             35.9223130249       36.5403816329       26.1217889936  TIP3      2957            0.0000000000
     33771      3157  TIP3      H2             36.6702127129       36.0842455813       27.3365758800  TIP3      2957            0.0000000000
     33772      3158  TIP3      OH2            37.1824355873       34.6543558538       28.1422145570  TIP3      2958            0.0000000000
     33773      3158  TIP3      H1             36.7497979613       33.8786033435       28.5344260905  TIP3      2958            0.0000000000
     33774      3158  TIP3      H2             38.0026911635       34.6708013808       28.6607279154  TIP3      2958            0.0000000000
     33775      3159  TIP3      OH2            37.8539847702       27.4020448638       31.0385158516  TIP3      2959            0.0000000000
     33776      3159  TIP3      H1             37.7808893915       27.5092942420       30.0802927742  TIP3      2959            0.0000000000
     33777      3159  TIP3      H2             38.6706299449       27.9313966376       31.1760611936  TIP3      2959            0.0000000000
     33778      3160  TIP3      OH2            37.0646546403       23.1706272544       36.7658474166  TIP3      2960            0.0000000000
     33779      3160  TIP3      H1             38.0417064463       23.1076884393       36.6542969990  TIP3      2960            0.0000000000
     33780      3160  TIP3      H2             36.8445179446       22.2294667136       36.8988263418  TIP3      2960            0.0000000000
     33781      3161  TIP3      OH2            36.6450255847       24.2635193584       30.5772979660  TIP3      2961            0.0000000000
     33782      3161  TIP3      H1             37.6303762366       24.2074620913       30.5230591277  TIP3      2961            0.0000000000
     33783      3161  TIP3      H2             36.5435822174       25.1850707977       30.8503441281  TIP3      2961            0.0000000000
     33784      3162  TIP3      OH2            36.9559890414       20.8961520428       25.0665711406  TIP3      2962            0.0000000000
     33785      3162  TIP3      H1             36.1007106911       21.3182666795       24.9002952997  TIP3      2962            0.0000000000
     33786      3162  TIP3      H2             37.1291359502       20.4723864476       24.2078901520  TIP3      2962            0.0000000000
     33787      3163  TIP3      OH2            36.4503092277       19.0913094156       32.6587544138  TIP3      2963            0.0000000000
     33788      3163  TIP3      H1             36.2406266628       19.3222399904       33.5854170412  TIP3      2963            0.0000000000
     33789      3163  TIP3      H2             36.1667918153       19.8924560229       32.1643815051  TIP3      2963            0.0000000000
     33790      3164  TIP3      OH2           -30.3565646732       36.9450238802       30.2163061814  TIP3      2964            0.0000000000
     33791      3164  TIP3      H1            -30.3969069517       36.4185342356       29.3933206835  TIP3      2964            0.0000000000
     33792      3164  TIP3      H2            -31.2982715820       37.2313998124       30.3334973987  TIP3      2964            0.0000000000
     33793      3165  TIP3      OH2           -21.2065079634       36.6041374541       22.7724689408  TIP3      2965            0.0000000000
     33794      3165  TIP3      H1            -22.1559547889       36.7081493816       22.6242252701  TIP3      2965            0.0000000000
     33795      3165  TIP3      H2            -20.9292892349       37.5381633391       22.6640382118  TIP3      2965            0.0000000000
     33796      3166  TIP3      OH2           -32.6149025436      -38.6167045870       30.5885869229  TIP3      2966            0.0000000000
     33797      3166  TIP3      H1            -33.5488652956      -38.7416166450       30.3019967954  TIP3      2966            0.0000000000
     33798      3166  TIP3      H2            -32.4840922118      -37.6421552783       30.5570849182  TIP3      2966            0.0000000000
     33799      3167  TIP3      OH2           -27.6258304057       37.5827938442       33.8307083081  TIP3      2967            0.0000000000
     33800      3167  TIP3      H1            -26.8485462412       37.3224972242       34.3804584807  TIP3      2967            0.0000000000
     33801      3167  TIP3      H2            -28.2997478243       36.9765547575       34.1683139552  TIP3      2967            0.0000000000
     33802      3168  TIP3      OH2           -35.1515774977       37.6447356821       29.8659122548  TIP3      2968            0.0000000000
     33803      3168  TIP3      H1            -35.3057673486       37.5617843719       28.8935893610  TIP3      2968            0.0000000000
     33804      3168  TIP3      H2            -35.5267260066       36.7809984160       30.1604210006  TIP3      2968            0.0000000000
     33805      3169  TIP3      OH2           -30.4545901469       36.7628110146       33.5746779548  TIP3      2969            0.0000000000
     33806      3169  TIP3      H1            -30.5566710316       37.7226874886       33.4164331091  TIP3      2969            0.0000000000
     33807      3169  TIP3      H2            -31.0968796930       36.3932605605       32.9359768201  TIP3      2969            0.0000000000
     33808      3170  TIP3      OH2           -30.8675883681       36.5793241338       36.2352975582  TIP3      2970            0.0000000000
     33809      3170  TIP3      H1            -30.2485764230       35.9980758523       36.6944804979  TIP3      2970            0.0000000000
     33810      3170  TIP3      H2            -30.6445176345       36.4509454241       35.2891935511  TIP3      2970            0.0000000000
     33811      3171  TIP3      OH2           -20.3892025796       37.0672442551       37.8793752535  TIP3      2971            0.0000000000
     33812      3171  TIP3      H1            -19.5549252425       36.7563158399       37.4575338823  TIP3      2971            0.0000000000
     33813      3171  TIP3      H2            -20.0039293563       37.7125947143       38.5020391817  TIP3      2971            0.0000000000
     33814      3172  TIP3      OH2           -37.8505385990       37.7607538829       32.9566043715  TIP3      2972            0.0000000000
     33815      3172  TIP3      H1            -38.4886679499       38.2175320693       33.5093781259  TIP3      2972            0.0000000000
     33816      3172  TIP3      H2            -37.6511768332       38.4444975368       32.3055413831  TIP3      2972            0.0000000000
     33817      3173  TIP3      OH2           -21.7242817332       37.3532106337       34.6198590154  TIP3      2973            0.0000000000
     33818      3173  TIP3      H1            -22.3538824523       37.1147505891       33.9108580648  TIP3      2973            0.0000000000
     33819      3173  TIP3      H2            -21.1632356446       36.5428585430       34.6459859018  TIP3      2973            0.0000000000
     33820      3174  TIP3      OH2           -22.5275068796       37.0160021984       28.9836267442  TIP3      2974            0.0000000000
     33821      3174  TIP3      H1            -22.4030013017       37.9675342849       29.1802237247  TIP3      2974            0.0000000000
     33822      3174  TIP3      H2            -23.4439677157       37.0787553576       28.6475818194  TIP3      2974            0.0000000000
     33823      3175  TIP3      OH2           -35.6540181671       37.2437171861       27.2451596317  TIP3      2975            0.0000000000
     33824      3175  TIP3      H1            -36.4629648431       37.0524036576       26.7290825897  TIP3      2975            0.0000000000
     33825      3175  TIP3      H2            -35.0396035699       36.5949549159       26.8356861940  TIP3      2975            0.0000000000
     33826      3176  TIP3      OH2           -36.3071056015       37.0513902460       22.4661321363  TIP3      2976            0.0000000000
     33827      3176  TIP3      H1            -36.0622611241       38.0036112465       22.4429541407  TIP3      2976            0.0000000000
     33828      3176  TIP3      H2            -36.9832776112       37.1158054331       23.1523616295  TIP3      2976            0.0000000000
     33829      3177  TIP3      OH2           -31.0471089373       36.8738308728       27.2737946533  TIP3      2977            0.0000000000
     33830      3177  TIP3      H1            -30.4608644484       37.3825278767       26.6983738411  TIP3      2977            0.0000000000
     33831      3177  TIP3      H2            -31.7834720952       37.5019165878       27.3872953316  TIP3      2977            0.0000000000
     33832      3178  TIP3      OH2           -25.4659371516       37.0516115599       28.2879434514  TIP3      2978            0.0000000000
     33833      3178  TIP3      H1            -26.0978219677       37.0512283977       27.5558048466  TIP3      2978            0.0000000000
     33834      3178  TIP3      H2            -25.8392080074       36.3929691030       28.8845240056  TIP3      2978            0.0000000000
     33835      3179  TIP3      OH2           -24.4260836835       37.2028649238       23.8194209086  TIP3      2979            0.0000000000
     33836      3179  TIP3      H1            -24.8256422233       37.3300886713       22.9471087178  TIP3      2979            0.0000000000
     33837      3179  TIP3      H2            -24.7661872442       36.3461308523       24.1108764194  TIP3      2979            0.0000000000
     33838      3180  TIP3      OH2           -33.9767575677       36.9120619618       37.4639242061  TIP3      2980            0.0000000000
     33839      3180  TIP3      H1            -33.1541046492       36.6110344497       37.0445747269  TIP3      2980            0.0000000000
     33840      3180  TIP3      H2            -34.1020638193       36.2302150358       38.1609022763  TIP3      2980            0.0000000000
     33841      3181  TIP3      OH2           -25.1420812815       36.1559511956       38.2635194786  TIP3      2981            0.0000000000
     33842      3181  TIP3      H1            -24.9526606889       35.9101670293       39.1924306093  TIP3      2981            0.0000000000
     33843      3181  TIP3      H2            -24.2200058752       36.2942538418       37.9422861466  TIP3      2981            0.0000000000
     33844      3182  TIP3      OH2           -11.2568138056       36.9143234507       30.2317363959  TIP3      2982            0.0000000000
     33845      3182  TIP3      H1            -11.3504648909       36.2574613122       29.5159161922  TIP3      2982            0.0000000000
     33846      3182  TIP3      H2            -12.2029633136       37.1022786134       30.4324013388  TIP3      2982            0.0000000000
     33847      3183  TIP3      OH2            -2.9605591220       36.6061867535       22.8712291385  TIP3      2983            0.0000000000
     33848      3183  TIP3      H1             -3.8763367927       36.6950029740       23.2032848960  TIP3      2983            0.0000000000
     33849      3183  TIP3      H2             -2.7098981142       37.5403096756       22.7435839795  TIP3      2983            0.0000000000
     33850      3184  TIP3      OH2           -13.7454088478       37.9204462920       30.6901215756  TIP3      2984            0.0000000000
     33851      3184  TIP3      H1            -14.6891352366       37.7841679115       30.4441277947  TIP3      2984            0.0000000000
     33852      3184  TIP3      H2            -13.6518964016       38.8977343493       30.6043771307  TIP3      2984            0.0000000000
     33853      3185  TIP3      OH2            -8.8537023437       37.6851602787       33.9646468410  TIP3      2985            0.0000000000
     33854      3185  TIP3      H1             -8.1438856723       37.2621817080       34.5006263939  TIP3      2985            0.0000000000
     33855      3185  TIP3      H2             -9.6161925799       37.1270489832       34.2030132085  TIP3      2985            0.0000000000
     33856      3186  TIP3      OH2           -16.3840087038       37.4979627927       29.7500426636  TIP3      2986            0.0000000000
     33857      3186  TIP3      H1            -16.4610996495       37.4306927568       28.7753569682  TIP3      2986            0.0000000000
     33858      3186  TIP3      H2            -16.6417330533       36.5809253593       30.0215678754  TIP3      2986            0.0000000000
     33859      3187  TIP3      OH2           -11.5041270975       36.7709088300       33.7315107843  TIP3      2987            0.0000000000
     33860      3187  TIP3      H1            -11.4906096157       37.7452492135       33.6140304960  TIP3      2987            0.0000000000
     33861      3187  TIP3      H2            -12.3386331136       36.5447800427       33.2657652734  TIP3      2987            0.0000000000
     33862      3188  TIP3      OH2           -12.1391828167       36.4861738528       36.3120516986  TIP3      2988            0.0000000000
     33863      3188  TIP3      H1            -11.3544825084       36.1709713083       36.7849351483  TIP3      2988            0.0000000000
     33864      3188  TIP3      H2            -11.8424056438       36.4077997078       35.3785470467  TIP3      2988            0.0000000000
     33865      3189  TIP3      OH2            -1.5371927826       37.0546211129       38.0230066645  TIP3      2989            0.0000000000
     33866      3189  TIP3      H1             -0.6806370150       36.6650665234       37.7395660205  TIP3      2989            0.0000000000
     33867      3189  TIP3      H2             -1.2456524137       37.9286423475       38.3606911377  TIP3      2989            0.0000000000
     33868      3190  TIP3      OH2           -19.1895080690       37.4644962035       32.9416632457  TIP3      2990            0.0000000000
     33869      3190  TIP3      H1            -19.9500116959       37.5236956717       33.5430690842  TIP3      2990            0.0000000000
     33870      3190  TIP3      H2            -19.0226951780       38.4060444519       32.7057506585  TIP3      2990            0.0000000000
     33871      3191  TIP3      OH2            -2.8840863134       37.4208862504       34.7775411368  TIP3      2991            0.0000000000
     33872      3191  TIP3      H1             -3.4304379733       37.2021774023       34.0008305062  TIP3      2991            0.0000000000
     33873      3191  TIP3      H2             -2.4743810232       36.5499888396       34.9565077962  TIP3      2991            0.0000000000
     33874      3192  TIP3      OH2            -3.6152495672       36.9617543245       28.8853367719  TIP3      2992            0.0000000000
     33875      3192  TIP3      H1             -3.2158750101       37.8404903299       29.0064794400  TIP3      2992            0.0000000000
     33876      3192  TIP3      H2             -4.5537567026       37.2319611423       28.9092803592  TIP3      2992            0.0000000000
     33877      3193  TIP3      OH2           -16.8191938921       37.1565904879       27.0790784592  TIP3      2993            0.0000000000
     33878      3193  TIP3      H1            -17.7013597757       37.0222377403       26.6651070441  TIP3      2993            0.0000000000
     33879      3193  TIP3      H2            -16.3315074258       36.3854672890       26.6977896272  TIP3      2993            0.0000000000
     33880      3194  TIP3      OH2           -11.8630862697       36.9132136071       27.2654345317  TIP3      2994            0.0000000000
     33881      3194  TIP3      H1            -11.3681614060       37.6858030809       26.9614386945  TIP3      2994            0.0000000000
     33882      3194  TIP3      H2            -12.7519919364       37.2910311834       27.3073807143  TIP3      2994            0.0000000000
     33883      3195  TIP3      OH2            -6.2383833384       37.3826504893       27.9749040962  TIP3      2995            0.0000000000
     33884      3195  TIP3      H1             -6.7908016250       37.5168861853       27.1944833677  TIP3      2995            0.0000000000
     33885      3195  TIP3      H2             -6.7217633171       36.6319094348       28.3861110946  TIP3      2995            0.0000000000
     33886      3196  TIP3      OH2            -5.4056082175       37.4984435135       23.6656398821  TIP3      2996            0.0000000000
     33887      3196  TIP3      H1             -6.0154067696       37.1160694155       23.0132874926  TIP3      2996            0.0000000000
     33888      3196  TIP3      H2             -5.5708612266       36.8658096704       24.3985641051  TIP3      2996            0.0000000000
     33889      3197  TIP3      OH2           -14.8487681379       36.8736145804       37.2271366821  TIP3      2997            0.0000000000
     33890      3197  TIP3      H1            -14.0159096117       36.3782796959       37.1305409749  TIP3      2997            0.0000000000
     33891      3197  TIP3      H2            -15.2254826427       36.4685750113       38.0428565420  TIP3      2997            0.0000000000
     33892      3198  TIP3      OH2            -6.2772494152       36.2148003555       38.3393146397  TIP3      2998            0.0000000000
     33893      3198  TIP3      H1             -6.1207059550       35.9928134080       39.2806857465  TIP3      2998            0.0000000000
     33894      3198  TIP3      H2             -5.3445657989       36.2959894086       38.0285873564  TIP3      2998            0.0000000000
     33895      3199  TIP3      OH2             7.5006128063       37.1210521590       30.3163788532  TIP3      2999            0.0000000000
     33896      3199  TIP3      H1              7.3977573140       36.4253588451       29.6436940957  TIP3      2999            0.0000000000
     33897      3199  TIP3      H2              6.5683028994       37.2015029830       30.6146279587  TIP3      2999            0.0000000000
     33898      3200  TIP3      OH2            16.1257443333       36.9538412663       22.7355885415  TIP3      3000            0.0000000000
     33899      3200  TIP3      H1             15.1984228072       37.2104916270       22.9111974679  TIP3      3000            0.0000000000
     33900      3200  TIP3      H2             16.5323372977       37.8434212130       22.8721080750  TIP3      3000            0.0000000000
     33901      3201  TIP3      OH2             5.0141705341       37.9877294722       30.6640214158  TIP3      3001            0.0000000000
     33902      3201  TIP3      H1              4.0594289605       37.9481415370       30.4161577850  TIP3      3001            0.0000000000
     33903      3201  TIP3      H2              5.1697984475       38.9606202382       30.6842653778  TIP3      3001            0.0000000000
     33904      3202  TIP3      OH2             9.9939094032       37.7431191592       34.0094889175  TIP3      3002            0.0000000000
     33905      3202  TIP3      H1             10.7254246493       37.3809295288       34.5660527351  TIP3      3002            0.0000000000
     33906      3202  TIP3      H2              9.2891105379       37.1209646645       34.2641462904  TIP3      3002            0.0000000000
     33907      3203  TIP3      OH2             2.4142455051       37.5140681376       29.9168587003  TIP3      3003            0.0000000000
     33908      3203  TIP3      H1              2.4189173283       37.3611825776       28.9502794658  TIP3      3003            0.0000000000
     33909      3203  TIP3      H2              2.2329325442       36.6111390382       30.2438580493  TIP3      3003            0.0000000000
     33910      3204  TIP3      OH2             7.3394810055       36.8744797010       33.7241347365  TIP3      3004            0.0000000000
     33911      3204  TIP3      H1              7.2782651005       37.8230305568       33.4795847063  TIP3      3004            0.0000000000
     33912      3204  TIP3      H2              6.4578016006       36.5600934619       33.4425462214  TIP3      3004            0.0000000000
     33913      3205  TIP3      OH2             6.7076012402       36.5562830551       36.2440128441  TIP3      3005            0.0000000000
     33914      3205  TIP3      H1              7.3469671578       35.9772031235       36.6771415268  TIP3      3005            0.0000000000
     33915      3205  TIP3      H2              7.0640686086       36.5830140298       35.3275605560  TIP3      3005            0.0000000000
     33916      3206  TIP3      OH2            17.2496758027       37.0404294779       37.9277910184  TIP3      3006            0.0000000000
     33917      3206  TIP3      H1             18.0855182940       36.7700963965       37.4763312581  TIP3      3006            0.0000000000
     33918      3206  TIP3      H2             17.6183049788       37.7001125757       38.5400867244  TIP3      3006            0.0000000000
     33919      3207  TIP3      OH2            -0.4881457387       37.5837186971       32.8148679279  TIP3      3007            0.0000000000
     33920      3207  TIP3      H1             -1.1142341701       37.6425811258       33.5562381765  TIP3      3007            0.0000000000
     33921      3207  TIP3      H2             -0.2946325891       38.5333813217       32.6172859179  TIP3      3007            0.0000000000
     33922      3208  TIP3      OH2            16.0027256381       37.4082398915       34.6701996461  TIP3      3008            0.0000000000
     33923      3208  TIP3      H1             15.3551366835       37.2708953434       33.9535923855  TIP3      3008            0.0000000000
     33924      3208  TIP3      H2             16.4903693153       36.5498016211       34.6293073060  TIP3      3008            0.0000000000
     33925      3209  TIP3      OH2            15.3279669945       36.8483317695       28.8067316174  TIP3      3009            0.0000000000
     33926      3209  TIP3      H1             15.5011197086       37.8084016677       28.8547265357  TIP3      3009            0.0000000000
     33927      3209  TIP3      H2             14.3553635693       36.9050067190       28.6851202450  TIP3      3009            0.0000000000
     33928      3210  TIP3      OH2             2.1590273310       36.9890355697       27.1988294581  TIP3      3010            0.0000000000
     33929      3210  TIP3      H1              1.2902332602       36.9635383034       26.7306307840  TIP3      3010            0.0000000000
     33930      3210  TIP3      H2              2.5368832135       36.1283349919       26.8966560987  TIP3      3010            0.0000000000
     33931      3211  TIP3      OH2             0.9053523341       37.2233222093       22.8172676114  TIP3      3011            0.0000000000
     33932      3211  TIP3      H1              1.3278671845       38.0180462946       22.4724466360  TIP3      3011            0.0000000000
     33933      3211  TIP3      H2              0.2913153075       37.5021386805       23.5041865987  TIP3      3011            0.0000000000
     33934      3212  TIP3      OH2             6.7405695209       36.7800356391       27.3053291191  TIP3      3012            0.0000000000
     33935      3212  TIP3      H1              7.1550109059       37.4546657232       26.7319834319  TIP3      3012            0.0000000000
     33936      3212  TIP3      H2              6.0563878690       37.3350812915       27.6851009308  TIP3      3012            0.0000000000
     33937      3213  TIP3      OH2            12.5793004442       37.2937490418       27.9289601106  TIP3      3013            0.0000000000
     33938      3213  TIP3      H1             12.1196308035       37.5049477026       27.1039202720  TIP3      3013            0.0000000000
     33939      3213  TIP3      H2             11.9784872592       36.6117990705       28.3093003311  TIP3      3013            0.0000000000
     33940      3214  TIP3      OH2            13.4896289448       37.5214226189       23.6350212024  TIP3      3014            0.0000000000
     33941      3214  TIP3      H1             13.0015869841       37.0515837922       22.9200862767  TIP3      3014            0.0000000000
     33942      3214  TIP3      H2             13.2950082058       36.9569988665       24.4019465767  TIP3      3014            0.0000000000
     33943      3215  TIP3      OH2             3.9534017001       36.8929198948       37.1963275934  TIP3      3015            0.0000000000
     33944      3215  TIP3      H1              4.7433710257       36.3550868343       37.0145787304  TIP3      3015            0.0000000000
     33945      3215  TIP3      H2              3.5533400815       36.4158489812       37.9543414987  TIP3      3015            0.0000000000
     33946      3216  TIP3      OH2            12.4972032564       36.4205230319       38.2878300455  TIP3      3016            0.0000000000
     33947      3216  TIP3      H1             12.6663535465       36.1179014448       39.2060370473  TIP3      3016            0.0000000000
     33948      3216  TIP3      H2             13.4184984156       36.3899084752       37.9389406855  TIP3      3016            0.0000000000
     33949      3217  TIP3      OH2            26.3048205308       36.9832606927       30.2991676338  TIP3      3017            0.0000000000
     33950      3217  TIP3      H1             26.2144232349       36.2084857078       29.7164400892  TIP3      3017            0.0000000000
     33951      3217  TIP3      H2             25.3682908934       37.1873121675       30.5326705719  TIP3      3017            0.0000000000
     33952      3218  TIP3      OH2            34.8655570958       36.6851425671       22.5950384336  TIP3      3018            0.0000000000
     33953      3218  TIP3      H1             33.9049343475       36.5849248386       22.6601962075  TIP3      3018            0.0000000000
     33954      3218  TIP3      H2             34.9630285925       37.6708956620       22.6710838306  TIP3      3018            0.0000000000
     33955      3219  TIP3      OH2            23.8071286131       37.9523162033       30.7617438232  TIP3      3019            0.0000000000
     33956      3219  TIP3      H1             22.9579396839       37.7887193981       30.2884967996  TIP3      3019            0.0000000000
     33957      3219  TIP3      H2             23.8742505752       38.9260794169       30.6688942445  TIP3      3019            0.0000000000
     33958      3220  TIP3      OH2            28.9216706819       37.6338546889       33.9489040530  TIP3      3020            0.0000000000
     33959      3220  TIP3      H1             29.6007943626       37.3085093403       34.5864360452  TIP3      3020            0.0000000000
     33960      3220  TIP3      H2             28.2253531506       36.9738570016       34.1007857075  TIP3      3020            0.0000000000
     33961      3221  TIP3      OH2            21.3780951200       37.4451305982       29.5683464246  TIP3      3021            0.0000000000
     33962      3221  TIP3      H1             21.1447822505       37.3680984705       28.6179314046  TIP3      3021            0.0000000000
     33963      3221  TIP3      H2             21.1000044244       36.5756528168       29.9223518926  TIP3      3021            0.0000000000
     33964      3222  TIP3      OH2            26.3394818874       36.9160862914       33.7088289748  TIP3      3022            0.0000000000
     33965      3222  TIP3      H1             26.2523560335       37.8830813537       33.5313255619  TIP3      3022            0.0000000000
     33966      3222  TIP3      H2             25.4420330178       36.6069271644       33.4953444082  TIP3      3022            0.0000000000
     33967      3223  TIP3      OH2            25.7669696931       36.6128880287       36.2876001409  TIP3      3023            0.0000000000
     33968      3223  TIP3      H1             26.4294895785       36.1476954073       36.8090727637  TIP3      3023            0.0000000000
     33969      3223  TIP3      H2             26.1386278975       36.5558552734       35.3830240438  TIP3      3023            0.0000000000
     33970      3224  TIP3      OH2            36.7586941012       36.8201109147       38.1850808894  TIP3      3024            0.0000000000
     33971      3224  TIP3      H1             37.5861490201       36.6836411883       37.7038813885  TIP3      3024            0.0000000000
     33972      3224  TIP3      H2             36.9857446115       37.5485791897       38.7938174038  TIP3      3024            0.0000000000
     33973      3225  TIP3      OH2            18.3456350381       37.4689343891       32.8333149543  TIP3      3025            0.0000000000
     33974      3225  TIP3      H1             17.7320172255       37.5048238490       33.5844336630  TIP3      3025            0.0000000000
     33975      3225  TIP3      H2             18.5009377056       38.4227146794       32.6509065158  TIP3      3025            0.0000000000
     33976      3226  TIP3      OH2            34.8299357110       37.2744203521       34.7325717550  TIP3      3026            0.0000000000
     33977      3226  TIP3      H1             34.2330905386       37.3007214175       33.9463098273  TIP3      3026            0.0000000000
     33978      3226  TIP3      H2             35.2242851450       36.3779917645       34.6308737831  TIP3      3026            0.0000000000
     33979      3227  TIP3      OH2            33.8701368970       36.9079824514       28.8386432947  TIP3      3027            0.0000000000
     33980      3227  TIP3      H1             34.3738751744       37.7453760379       28.8325935549  TIP3      3027            0.0000000000
     33981      3227  TIP3      H2             32.9884235624       37.2258147796       28.5470657905  TIP3      3027            0.0000000000
     33982      3228  TIP3      OH2            20.8859697447       37.1865323256       26.8649209225  TIP3      3028            0.0000000000
     33983      3228  TIP3      H1             19.9831584359       36.9820288910       26.5237607537  TIP3      3028            0.0000000000
     33984      3228  TIP3      H2             21.3622085854       36.3643471891       26.5989645002  TIP3      3028            0.0000000000
     33985      3229  TIP3      OH2            25.4443134168       36.9562967681       26.9456168807  TIP3      3029            0.0000000000
     33986      3229  TIP3      H1             25.7828637011       37.7993641277       26.5931886811  TIP3      3029            0.0000000000
     33987      3229  TIP3      H2             24.8849196323       37.2925040565       27.6479278503  TIP3      3029            0.0000000000
     33988      3230  TIP3      OH2            31.4046372757       37.3781230921       27.6301265295  TIP3      3030            0.0000000000
     33989      3230  TIP3      H1             31.5456972743       37.0243608418       26.7281703899  TIP3      3030            0.0000000000
     33990      3230  TIP3      H2             30.7816501341       36.7283598517       28.0078126312  TIP3      3030            0.0000000000
     33991      3231  TIP3      OH2            32.3639567291       37.5986493295       23.9655413328  TIP3      3031            0.0000000000
     33992      3231  TIP3      H1             32.4084221769       37.4028628275       23.0157047274  TIP3      3031            0.0000000000
     33993      3231  TIP3      H2             32.0132979060       36.7435845037       24.2854282745  TIP3      3031            0.0000000000
     33994      3232  TIP3      OH2            22.8194565925       36.9609623725       37.1659126961  TIP3      3032            0.0000000000
     33995      3232  TIP3      H1             23.5468728294       36.3478875109       36.9619249474  TIP3      3032            0.0000000000
     33996      3232  TIP3      H2             22.4236983367       36.5060136095       37.9468404977  TIP3      3032            0.0000000000
     33997      3233  TIP3      OH2            31.4731358716       36.2500011495       38.2028485758  TIP3      3033            0.0000000000
     33998      3233  TIP3      H1             31.5780717693       36.0902741478       39.1681875327  TIP3      3033            0.0000000000
     33999      3233  TIP3      H2             32.4216133542       36.2236066539       37.9539151934  TIP3      3033            0.0000000000
     34000      3234  TIP3      OH2            36.1216733722       37.5868390345       32.1933311897  TIP3      3034            0.0000000000
     34001      3234  TIP3      H1             36.1437044143       37.6763378072       33.1541508464  TIP3      3034            0.0000000000
     34002      3234  TIP3      H2             36.3808578889       38.4813463712       31.9199143165  TIP3      3034            0.0000000000
     34003      3235  TIP3      OH2           -26.0275773517      -28.2672996159       45.5116055935  TIP3      3035            0.0000000000
     34004      3235  TIP3      H1            -26.1679341659      -27.3006538923       45.5627201646  TIP3      3035            0.0000000000
     34005      3235  TIP3      H2            -26.9378466622      -28.6171261962       45.5240561543  TIP3      3035            0.0000000000
     34006      3236  TIP3      OH2           -27.9819252409      -28.5952343526       49.6323999447  TIP3      3036            0.0000000000
     34007      3236  TIP3      H1            -27.7321481960      -29.3688935550       50.1796911264  TIP3      3036            0.0000000000
     34008      3236  TIP3      H2            -27.8731197268      -28.9695516611       48.7395579885  TIP3      3036            0.0000000000
     34009      3237  TIP3      OH2           -24.3569340174      -26.3661109585       47.2340011849  TIP3      3037            0.0000000000
     34010      3237  TIP3      H1            -24.6935867723      -27.1013775086       47.7820958643  TIP3      3037            0.0000000000
     34011      3237  TIP3      H2            -23.9946933357      -25.7328340844       47.8895144632  TIP3      3037            0.0000000000
     34012      3238  TIP3      OH2           -34.4382703541      -25.0678636700       48.5859291844  TIP3      3038            0.0000000000
     34013      3238  TIP3      H1            -34.5516256416      -26.0151472645       48.3262195077  TIP3      3038            0.0000000000
     34014      3238  TIP3      H2            -33.4968464547      -25.0817831288       48.8146066066  TIP3      3038            0.0000000000
     34015      3239  TIP3      OH2           -37.0933459481      -31.7431715841       43.8532846878  TIP3      3039            0.0000000000
     34016      3239  TIP3      H1            -37.2544006760      -30.9217507479       44.3439882528  TIP3      3039            0.0000000000
     34017      3239  TIP3      H2            -37.9161209457      -32.1942251336       44.1116032595  TIP3      3039            0.0000000000
     34018      3240  TIP3      OH2           -37.2683058979      -29.2411010886       46.8250124404  TIP3      3040            0.0000000000
     34019      3240  TIP3      H1            -36.7094989536      -30.0073638553       47.1069867829  TIP3      3040            0.0000000000
     34020      3240  TIP3      H2            -36.6474528684      -28.7808078284       46.2444872432  TIP3      3040            0.0000000000
     34021      3241  TIP3      OH2           -26.6827550188      -20.7132594529       47.9424245903  TIP3      3041            0.0000000000
     34022      3241  TIP3      H1            -26.0346087135      -21.1688859226       47.3578756493  TIP3      3041            0.0000000000
     34023      3241  TIP3      H2            -27.0870143835      -21.4933997256       48.3433455036  TIP3      3041            0.0000000000
     34024      3242  TIP3      OH2           -28.9299052889      -25.9608213294       49.8349183281  TIP3      3042            0.0000000000
     34025      3242  TIP3      H1            -28.8040311989      -26.8200863987       49.3710262075  TIP3      3042            0.0000000000
     34026      3242  TIP3      H2            -28.2518113921      -26.0705125774       50.5208635470  TIP3      3042            0.0000000000
     34027      3243  TIP3      OH2           -26.5217315824      -32.7246934532       49.6248842514  TIP3      3043            0.0000000000
     34028      3243  TIP3      H1            -25.6263635303      -32.3443436759       49.7166876060  TIP3      3043            0.0000000000
     34029      3243  TIP3      H2            -26.8674296002      -32.2001606535       48.8743490103  TIP3      3043            0.0000000000
     34030      3244  TIP3      OH2           -32.4712513924      -34.2465661614       46.9550269435  TIP3      3044            0.0000000000
     34031      3244  TIP3      H1            -32.2444822521      -33.4675968289       46.3877224735  TIP3      3044            0.0000000000
     34032      3244  TIP3      H2            -32.9992145793      -34.7787751336       46.3229197314  TIP3      3044            0.0000000000
     34033      3245  TIP3      OH2           -24.8419701118      -34.3737645190       45.0472931351  TIP3      3045            0.0000000000
     34034      3245  TIP3      H1            -24.2193532908      -34.6743629121       45.7413529977  TIP3      3045            0.0000000000
     34035      3245  TIP3      H2            -24.8770209913      -33.4250855591       45.2891168750  TIP3      3045            0.0000000000
     34036      3246  TIP3      OH2           -35.9537822112      -31.5711974261       47.3291777221  TIP3      3046            0.0000000000
     34037      3246  TIP3      H1            -35.4674741647      -32.1976955334       47.8757692577  TIP3      3046            0.0000000000
     34038      3246  TIP3      H2            -35.9620060018      -32.0699020787       46.4863905556  TIP3      3046            0.0000000000
     34039      3247  TIP3      OH2           -31.5622205169      -30.3161596379       47.2858687639  TIP3      3047            0.0000000000
     34040      3247  TIP3      H1            -30.7227299003      -30.7559672061       47.5098693498  TIP3      3047            0.0000000000
     34041      3247  TIP3      H2            -31.8569712117      -30.8790449191       46.5374377651  TIP3      3047            0.0000000000
     34042      3248  TIP3      OH2           -26.8541256572      -25.7156281479       44.4200036986  TIP3      3048            0.0000000000
     34043      3248  TIP3      H1            -27.0638908778      -25.9852294965       43.5113932542  TIP3      3048            0.0000000000
     34044      3248  TIP3      H2            -27.1034665834      -24.7609298051       44.4104003851  TIP3      3048            0.0000000000
     34045      3249  TIP3      OH2           -23.2712957407      -34.9605277320       47.1540712182  TIP3      3049            0.0000000000
     34046      3249  TIP3      H1            -23.2193715707      -35.0091524300       48.1302253857  TIP3      3049            0.0000000000
     34047      3249  TIP3      H2            -22.7549922103      -34.1385234646       47.0860100541  TIP3      3049            0.0000000000
     34048      3250  TIP3      OH2           -34.3054422371      -33.3978467708       48.8980023449  TIP3      3050            0.0000000000
     34049      3250  TIP3      H1            -33.9415224545      -32.5084753613       49.0112357893  TIP3      3050            0.0000000000
     34050      3250  TIP3      H2            -33.7714825028      -33.7604212323       48.1596085332  TIP3      3050            0.0000000000
     34051      3251  TIP3      OH2           -37.1535162337      -26.1426235483       42.7631414316  TIP3      3051            0.0000000000
     34052      3251  TIP3      H1            -37.2215296170      -25.5758904707       41.9577549241  TIP3      3051            0.0000000000
     34053      3251  TIP3      H2            -36.8928042693      -25.4811231898       43.4375990046  TIP3      3051            0.0000000000
     34054      3252  TIP3      OH2           -23.1955591018      -24.6988884277       48.9514923587  TIP3      3052            0.0000000000
     34055      3252  TIP3      H1            -23.8205911626      -25.1724851868       49.5252295756  TIP3      3052            0.0000000000
     34056      3252  TIP3      H2            -22.7643058080      -24.1220427537       49.5950210025  TIP3      3052            0.0000000000
     34057      3253  TIP3      OH2           -30.0026666044      -37.4385188246       48.0688990353  TIP3      3053            0.0000000000
     34058      3253  TIP3      H1            -29.8119157486      -38.3787355099       48.2601709965  TIP3      3053            0.0000000000
     34059      3253  TIP3      H2            -30.7795453694      -37.3039637051       48.6501680152  TIP3      3053            0.0000000000
     34060      3254  TIP3      OH2           -25.2656010877      -22.3287362807       46.3368043604  TIP3      3054            0.0000000000
     34061      3254  TIP3      H1            -24.9210958493      -23.1909408502       46.0251408741  TIP3      3054            0.0000000000
     34062      3254  TIP3      H2            -24.4291245263      -21.8015804792       46.2640326425  TIP3      3054            0.0000000000
     34063      3255  TIP3      OH2           -23.7882594278      -24.4033553214       45.1503354851  TIP3      3055            0.0000000000
     34064      3255  TIP3      H1            -24.1207227981      -24.9780832286       44.4416021719  TIP3      3055            0.0000000000
     34065      3255  TIP3      H2            -23.7752365726      -25.0236021625       45.9039184217  TIP3      3055            0.0000000000
     34066      3256  TIP3      OH2           -27.7852321273      -29.1605331622       43.2298401765  TIP3      3056            0.0000000000
     34067      3256  TIP3      H1            -28.2919696998      -28.3334607296       43.1026604993  TIP3      3056            0.0000000000
     34068      3256  TIP3      H2            -26.9064717559      -28.9041949461       42.9051009263  TIP3      3056            0.0000000000
     34069      3257  TIP3      OH2           -27.6343188818      -29.9787288172       39.9485383056  TIP3      3057            0.0000000000
     34070      3257  TIP3      H1            -27.0430582834      -29.5852511587       40.6293346909  TIP3      3057            0.0000000000
     34071      3257  TIP3      H2            -27.4757566592      -30.9178643325       40.1123118031  TIP3      3057            0.0000000000
     34072      3258  TIP3      OH2           -23.9140750539      -29.3093535293       43.9794831313  TIP3      3058            0.0000000000
     34073      3258  TIP3      H1            -24.5966694065      -28.9380582309       44.5923344716  TIP3      3058            0.0000000000
     34074      3258  TIP3      H2            -23.3120233475      -29.7484413866       44.6124848067  TIP3      3058            0.0000000000
     34075      3259  TIP3      OH2           -32.6327968329      -28.2480584315       45.8404663415  TIP3      3059            0.0000000000
     34076      3259  TIP3      H1            -33.0988446920      -28.7036895909       45.1079643796  TIP3      3059            0.0000000000
     34077      3259  TIP3      H2            -32.1706788754      -28.9662354409       46.3183205447  TIP3      3059            0.0000000000
     34078      3260  TIP3      OH2           -31.0251090360      -24.4998273720       48.5643829857  TIP3      3060            0.0000000000
     34079      3260  TIP3      H1            -31.1259177369      -24.8842152275       47.6778826902  TIP3      3060            0.0000000000
     34080      3260  TIP3      H2            -30.2993729170      -25.0333397218       48.9551228344  TIP3      3060            0.0000000000
     34081      3261  TIP3      OH2           -32.8942355879      -29.5253178121       49.4635112494  TIP3      3061            0.0000000000
     34082      3261  TIP3      H1            -32.4977041387      -29.8178530332       48.6156692343  TIP3      3061            0.0000000000
     34083      3261  TIP3      H2            -32.1097212811      -29.4857613551       50.0311971559  TIP3      3061            0.0000000000
     34084      3262  TIP3      OH2           -25.4640305730      -29.4369639776       41.6821899872  TIP3      3062            0.0000000000
     34085      3262  TIP3      H1            -24.9130603739      -29.4139407552       42.4999244602  TIP3      3062            0.0000000000
     34086      3262  TIP3      H2            -24.8454157118      -29.0753015146       40.9974261501  TIP3      3062            0.0000000000
     34087      3263  TIP3      OH2           -27.5566444420      -23.1240418341       44.7136124869  TIP3      3063            0.0000000000
     34088      3263  TIP3      H1            -26.9940754134      -22.7842525649       45.4310966917  TIP3      3063            0.0000000000
     34089      3263  TIP3      H2            -28.0591478663      -22.3433401471       44.4392846689  TIP3      3063            0.0000000000
     34090      3264  TIP3      OH2           -21.5347263603      -37.4612513980       41.7308758828  TIP3      3064            0.0000000000
     34091      3264  TIP3      H1            -22.4116834529      -37.1282674440       41.9919354951  TIP3      3064            0.0000000000
     34092      3264  TIP3      H2            -21.1549591031      -36.6307373462       41.3764378054  TIP3      3064            0.0000000000
     34093      3265  TIP3      OH2           -34.1089094661      -29.3497766845       43.6003636603  TIP3      3065            0.0000000000
     34094      3265  TIP3      H1            -34.2049722570      -28.5055592451       43.1018842105  TIP3      3065            0.0000000000
     34095      3265  TIP3      H2            -34.1922406655      -29.9949467561       42.8869050170  TIP3      3065            0.0000000000
     34096      3266  TIP3      OH2           -20.5259531443      -23.8034679919       40.1333048207  TIP3      3066            0.0000000000
     34097      3266  TIP3      H1            -20.2363791784      -22.8779263825       40.2611506965  TIP3      3066            0.0000000000
     34098      3266  TIP3      H2            -19.6649607343      -24.2626366280       40.2544989828  TIP3      3066            0.0000000000
     34099      3267  TIP3      OH2           -36.9921324426      -23.7134031957       48.9397963930  TIP3      3067            0.0000000000
     34100      3267  TIP3      H1            -36.2607919266      -24.3645163040       48.9756229487  TIP3      3067            0.0000000000
     34101      3267  TIP3      H2            -36.7689002923      -23.1612126001       49.7001576948  TIP3      3067            0.0000000000
     34102      3268  TIP3      OH2           -27.9562448917      -20.3881138380       43.5492483848  TIP3      3068            0.0000000000
     34103      3268  TIP3      H1            -27.9786761020      -20.3037757260       42.5728069794  TIP3      3068            0.0000000000
     34104      3268  TIP3      H2            -28.1977312084      -19.4711095541       43.8195302115  TIP3      3068            0.0000000000
     34105      3269  TIP3      OH2           -34.3156086748      -21.4553502302       45.3435154230  TIP3      3069            0.0000000000
     34106      3269  TIP3      H1            -34.0927186060      -21.7875678824       46.2405416191  TIP3      3069            0.0000000000
     34107      3269  TIP3      H2            -35.2545839194      -21.6811532835       45.2904013065  TIP3      3069            0.0000000000
     34108      3270  TIP3      OH2           -25.0389959398      -20.9638120689       40.5134973670  TIP3      3070            0.0000000000
     34109      3270  TIP3      H1            -24.5440461868      -21.7338280798       40.1521954051  TIP3      3070            0.0000000000
     34110      3270  TIP3      H2            -25.0114186468      -21.1346794787       41.4807735132  TIP3      3070            0.0000000000
     34111      3271  TIP3      OH2           -25.3513039038      -21.0019259032       43.2073148280  TIP3      3071            0.0000000000
     34112      3271  TIP3      H1            -26.3006103086      -20.8229367755       43.3979594691  TIP3      3071            0.0000000000
     34113      3271  TIP3      H2            -25.1935371390      -21.7374505724       43.8143802024  TIP3      3071            0.0000000000
     34114      3272  TIP3      OH2           -32.2373624112      -36.5725529696       49.4562587174  TIP3      3072            0.0000000000
     34115      3272  TIP3      H1            -33.0861170544      -36.1586322270       49.2189369295  TIP3      3072            0.0000000000
     34116      3272  TIP3      H2            -31.7045506696      -35.7646483333       49.6231110228  TIP3      3072            0.0000000000
     34117      3273  TIP3      OH2           -23.7670588169      -28.3047157098       39.8649340092  TIP3      3073            0.0000000000
     34118      3273  TIP3      H1            -23.9417943050      -28.1651154512       38.9127104243  TIP3      3073            0.0000000000
     34119      3273  TIP3      H2            -22.7907571773      -28.2063070386       39.8699010806  TIP3      3073            0.0000000000
     34120      3274  TIP3      OH2           -28.3081125952      -34.7951932028       40.1817093675  TIP3      3074            0.0000000000
     34121      3274  TIP3      H1            -28.7895305684      -35.2274143225       40.9177526246  TIP3      3074            0.0000000000
     34122      3274  TIP3      H2            -28.6333924311      -35.3126150353       39.4389223719  TIP3      3074            0.0000000000
     34123      3275  TIP3      OH2           -32.5003524273      -32.0301481117       45.5487583671  TIP3      3075            0.0000000000
     34124      3275  TIP3      H1            -33.4445854957      -32.2740307612       45.4038766854  TIP3      3075            0.0000000000
     34125      3275  TIP3      H2            -32.0684398301      -32.2942600630       44.7027712858  TIP3      3075            0.0000000000
     34126      3276  TIP3      OH2           -26.7051199624      -31.5573649664       43.8535510756  TIP3      3076            0.0000000000
     34127      3276  TIP3      H1            -27.0748834611      -30.6979863222       43.5559294769  TIP3      3076            0.0000000000
     34128      3276  TIP3      H2            -26.0745743461      -31.7818342661       43.1362322168  TIP3      3076            0.0000000000
     34129      3277  TIP3      OH2           -24.9481438136      -32.3232342296       46.7206296801  TIP3      3077            0.0000000000
     34130      3277  TIP3      H1            -25.6676233314      -31.6629381799       46.5553744769  TIP3      3077            0.0000000000
     34131      3277  TIP3      H2            -25.4721379606      -33.0491739009       47.0957757814  TIP3      3077            0.0000000000
     34132      3278  TIP3      OH2           -31.6995157896      -34.5410773810       38.9321901896  TIP3      3078            0.0000000000
     34133      3278  TIP3      H1            -31.9998386408      -34.8614273643       39.8119345375  TIP3      3078            0.0000000000
     34134      3278  TIP3      H2            -32.5118141089      -34.1205188207       38.6133542598  TIP3      3078            0.0000000000
     34135      3279  TIP3      OH2           -37.6105206412      -33.9313107601       46.5235539589  TIP3      3079            0.0000000000
     34136      3279  TIP3      H1            -37.1973527898      -34.2226508737       47.3644499144  TIP3      3079            0.0000000000
     34137      3279  TIP3      H2            -37.2111908556      -34.5613220290       45.8952802094  TIP3      3079            0.0000000000
     34138      3280  TIP3      OH2           -36.9914802715      -34.0034910671       41.7173348558  TIP3      3080            0.0000000000
     34139      3280  TIP3      H1            -36.5671233265      -33.5097075636       40.9747673971  TIP3      3080            0.0000000000
     34140      3280  TIP3      H2            -37.4621739045      -33.2764083452       42.1534647458  TIP3      3080            0.0000000000
     34141      3281  TIP3      OH2           -29.5853901421      -34.3426646555       46.4337415951  TIP3      3081            0.0000000000
     34142      3281  TIP3      H1            -30.3966029368      -34.4649745102       46.9459897164  TIP3      3081            0.0000000000
     34143      3281  TIP3      H2            -28.9447077731      -34.6087964727       47.1300335616  TIP3      3081            0.0000000000
     34144      3282  TIP3      OH2           -35.0623718946      -33.0608025634       45.2545815552  TIP3      3082            0.0000000000
     34145      3282  TIP3      H1            -35.6889386460      -32.7885501370       44.5576327275  TIP3      3082            0.0000000000
     34146      3282  TIP3      H2            -34.8406566161      -33.9634637307       44.9386666138  TIP3      3082            0.0000000000
     34147      3283  TIP3      OH2           -31.3859339871      -32.7171832547       43.2143684434  TIP3      3083            0.0000000000
     34148      3283  TIP3      H1            -30.4116677928      -32.6413833015       43.2991259146  TIP3      3083            0.0000000000
     34149      3283  TIP3      H2            -31.6203477678      -32.0875432474       42.5158284312  TIP3      3083            0.0000000000
     34150      3284  TIP3      OH2           -25.7270571794      -35.6278940966       49.5727307211  TIP3      3084            0.0000000000
     34151      3284  TIP3      H1            -25.8209506482      -34.7271000630       49.9247880308  TIP3      3084            0.0000000000
     34152      3284  TIP3      H2            -26.6250367332      -35.7420554754       49.2211590347  TIP3      3084            0.0000000000
     34153      3285  TIP3      OH2           -32.6961780348      -31.0891996851       40.3506089486  TIP3      3085            0.0000000000
     34154      3285  TIP3      H1            -33.1040166722      -31.8357322686       39.8839697488  TIP3      3085            0.0000000000
     34155      3285  TIP3      H2            -31.8298063992      -30.9857463697       39.9063800132  TIP3      3085            0.0000000000
     34156      3286  TIP3      OH2           -29.3374199851      -32.2068488977       48.9193499139  TIP3      3086            0.0000000000
     34157      3286  TIP3      H1            -28.7726612067      -31.7650596049       48.2390859383  TIP3      3086            0.0000000000
     34158      3286  TIP3      H2            -28.6840650100      -32.8144413623       49.3058882143  TIP3      3086            0.0000000000
     34159      3287  TIP3      OH2           -33.7576702637      -35.2496737111       44.5431983275  TIP3      3087            0.0000000000
     34160      3287  TIP3      H1            -34.2028941728      -36.0646842989       44.8663206272  TIP3      3087            0.0000000000
     34161      3287  TIP3      H2            -32.9845030605      -35.5781006852       44.0836951886  TIP3      3087            0.0000000000
     34162      3288  TIP3      OH2           -29.3150638915      -26.9849213753       42.8472554843  TIP3      3088            0.0000000000
     34163      3288  TIP3      H1            -30.0637966698      -27.4290683944       42.4028555965  TIP3      3088            0.0000000000
     34164      3288  TIP3      H2            -29.7795439806      -26.6287886015       43.6435465459  TIP3      3088            0.0000000000
     34165      3289  TIP3      OH2           -25.8819286745      -34.2536669090       41.1156768519  TIP3      3089            0.0000000000
     34166      3289  TIP3      H1            -26.8103273620      -34.1391301812       40.7897643884  TIP3      3089            0.0000000000
     34167      3289  TIP3      H2            -25.5776356439      -33.3435157904       41.3371562076  TIP3      3089            0.0000000000
     34168      3290  TIP3      OH2           -24.7840194112      -32.1211335977       42.0876822206  TIP3      3090            0.0000000000
     34169      3290  TIP3      H1            -24.1393745065      -32.2931934433       42.7972769572  TIP3      3090            0.0000000000
     34170      3290  TIP3      H2            -24.4122417188      -31.3242179231       41.6832598210  TIP3      3090            0.0000000000
     34171      3291  TIP3      OH2           -34.3282231190      -27.6429516191       47.8672667053  TIP3      3091            0.0000000000
     34172      3291  TIP3      H1            -33.7904946329      -27.6752406198       47.0501387816  TIP3      3091            0.0000000000
     34173      3291  TIP3      H2            -33.7116079896      -28.0167659984       48.5342478837  TIP3      3091            0.0000000000
     34174      3292  TIP3      OH2           -27.5074647502      -25.6507234875       41.5535195179  TIP3      3092            0.0000000000
     34175      3292  TIP3      H1            -27.9498402798      -24.7767107644       41.6589929593  TIP3      3092            0.0000000000
     34176      3292  TIP3      H2            -28.1742729456      -26.2543358092       41.9498865592  TIP3      3092            0.0000000000
     34177      3293  TIP3      OH2           -20.3085011410      -31.9259285123       42.0293561434  TIP3      3093            0.0000000000
     34178      3293  TIP3      H1            -20.7386184986      -32.2869930448       41.2245769941  TIP3      3093            0.0000000000
     34179      3293  TIP3      H2            -20.0884708986      -31.0063431640       41.7668936026  TIP3      3093            0.0000000000
     34180      3294  TIP3      OH2           -22.1398277876      -23.3941169398       42.2975738478  TIP3      3094            0.0000000000
     34181      3294  TIP3      H1            -22.3610537308      -24.0113257122       43.0103457786  TIP3      3094            0.0000000000
     34182      3294  TIP3      H2            -21.5718319975      -23.9030450462       41.6865338463  TIP3      3094            0.0000000000
     34183      3295  TIP3      OH2           -24.8406640055      -28.5282643181       49.0164727969  TIP3      3095            0.0000000000
     34184      3295  TIP3      H1            -25.7195842628      -28.7830968140       48.6895430313  TIP3      3095            0.0000000000
     34185      3295  TIP3      H2            -24.2563952882      -29.0816046731       48.4484076040  TIP3      3095            0.0000000000
     34186      3296  TIP3      OH2           -32.1527728790      -24.1006714587       45.6542440432  TIP3      3096            0.0000000000
     34187      3296  TIP3      H1            -31.8798937554      -23.2998854726       45.1478190195  TIP3      3096            0.0000000000
     34188      3296  TIP3      H2            -33.0434498345      -24.2136366235       45.3136186357  TIP3      3096            0.0000000000
     34189      3297  TIP3      OH2           -35.8718370691      -29.1660657841       40.7460167087  TIP3      3097            0.0000000000
     34190      3297  TIP3      H1            -35.3327035813      -28.4289012723       41.1183123293  TIP3      3097            0.0000000000
     34191      3297  TIP3      H2            -36.7574618653      -28.9644517640       41.0684592443  TIP3      3097            0.0000000000
     34192      3298  TIP3      OH2           -30.7649369514      -26.2714352089       44.8990292015  TIP3      3098            0.0000000000
     34193      3298  TIP3      H1            -31.3319985311      -25.5460080857       45.2332821097  TIP3      3098            0.0000000000
     34194      3298  TIP3      H2            -31.0572638819      -27.0189116371       45.4365424334  TIP3      3098            0.0000000000
     34195      3299  TIP3      OH2           -31.7647563272      -21.7205794868       44.4528427212  TIP3      3099            0.0000000000
     34196      3299  TIP3      H1            -32.7076067947      -21.5423919996       44.6621407696  TIP3      3099            0.0000000000
     34197      3299  TIP3      H2            -31.3939013137      -20.8721112532       44.7705006468  TIP3      3099            0.0000000000
     34198      3300  TIP3      OH2           -24.1145282174      -25.3158099297       40.3436816275  TIP3      3100            0.0000000000
     34199      3300  TIP3      H1            -23.9500157707      -25.7306932414       41.2224053084  TIP3      3100            0.0000000000
     34200      3300  TIP3      H2            -25.0570888709      -25.5085382381       40.2425701150  TIP3      3100            0.0000000000
     34201      3301  TIP3      OH2           -19.8649421760      -21.0289964661       40.7614390502  TIP3      3101            0.0000000000
     34202      3301  TIP3      H1            -19.2142516769      -20.3873153550       40.4516287391  TIP3      3101            0.0000000000
     34203      3301  TIP3      H2            -20.5808838227      -20.4097172086       41.0572633974  TIP3      3101            0.0000000000
     34204      3302  TIP3      OH2           -23.3337248690      -26.7568503253       42.6207646797  TIP3      3102            0.0000000000
     34205      3302  TIP3      H1            -23.5422969312      -27.6593122371       42.9225786384  TIP3      3102            0.0000000000
     34206      3302  TIP3      H2            -22.3661925551      -26.8183144470       42.5314000599  TIP3      3102            0.0000000000
     34207      3303  TIP3      OH2           -30.1906129961      -23.9606842575       38.8723790773  TIP3      3103            0.0000000000
     34208      3303  TIP3      H1            -30.2485283074      -24.4926863872       38.0654509475  TIP3      3103            0.0000000000
     34209      3303  TIP3      H2            -30.7333960793      -24.5002593054       39.4857774847  TIP3      3103            0.0000000000
     34210      3304  TIP3      OH2           -31.4584867869      -24.8331716609       41.3017046042  TIP3      3104            0.0000000000
     34211      3304  TIP3      H1            -30.7893221292      -25.1377039109       41.9322688230  TIP3      3104            0.0000000000
     34212      3304  TIP3      H2            -31.4188479535      -23.8685868367       41.5303451056  TIP3      3104            0.0000000000
     34213      3305  TIP3      OH2           -34.6393521425      -27.1729672936       41.9739218989  TIP3      3105            0.0000000000
     34214      3305  TIP3      H1            -35.5202534978      -26.8906443793       42.3115113687  TIP3      3105            0.0000000000
     34215      3305  TIP3      H2            -34.4361198356      -26.4845384607       41.3159413405  TIP3      3105            0.0000000000
     34216      3306  TIP3      OH2           -26.4312312782      -35.5905975007       43.3799825517  TIP3      3106            0.0000000000
     34217      3306  TIP3      H1            -26.4391749319      -34.9111282347       42.6765591956  TIP3      3106            0.0000000000
     34218      3306  TIP3      H2            -25.8292889366      -35.1708507907       44.0443518404  TIP3      3106            0.0000000000
     34219      3307  TIP3      OH2           -28.5199096619      -23.1046949041       41.7096107219  TIP3      3107            0.0000000000
     34220      3307  TIP3      H1            -29.3903834252      -22.6854194669       41.8703130346  TIP3      3107            0.0000000000
     34221      3307  TIP3      H2            -27.9342156087      -22.3346932798       41.7590638800  TIP3      3107            0.0000000000
     34222      3308  TIP3      OH2           -28.7184062181      -33.2631348149       43.9813734058  TIP3      3108            0.0000000000
     34223      3308  TIP3      H1            -27.9169092816      -32.7078346670       44.1509585265  TIP3      3108            0.0000000000
     34224      3308  TIP3      H2            -28.9819839721      -33.4712636368       44.8988795644  TIP3      3108            0.0000000000
     34225      3309  TIP3      OH2           -28.2803120720      -36.2938545647       45.0540869441  TIP3      3109            0.0000000000
     34226      3309  TIP3      H1            -28.4220391164      -35.4109165986       45.4293538798  TIP3      3109            0.0000000000
     34227      3309  TIP3      H2            -27.5027254803      -36.1433411715       44.4641335479  TIP3      3109            0.0000000000
     34228      3310  TIP3      OH2           -31.0999015169      -22.3035245402       41.8963518393  TIP3      3110            0.0000000000
     34229      3310  TIP3      H1            -30.9348021280      -21.5376382390       41.2946885701  TIP3      3110            0.0000000000
     34230      3310  TIP3      H2            -31.4332901305      -21.8000876710       42.6719365835  TIP3      3110            0.0000000000
     34231      3311  TIP3      OH2           -32.6745949999      -34.8507640632       41.3705984305  TIP3      3111            0.0000000000
     34232      3311  TIP3      H1            -32.8643512841      -34.0651244393       41.9062321618  TIP3      3111            0.0000000000
     34233      3311  TIP3      H2            -31.8382101223      -35.1184836418       41.8007477073  TIP3      3111            0.0000000000
     34234      3312  TIP3      OH2           -23.4688696531      -30.3205319625       47.6569436218  TIP3      3112            0.0000000000
     34235      3312  TIP3      H1            -24.2107439481      -30.9316165233       47.4756770940  TIP3      3112            0.0000000000
     34236      3312  TIP3      H2            -23.0856767388      -30.8107595287       48.3978594356  TIP3      3112            0.0000000000
     34237      3313  TIP3      OH2           -34.0993838710      -24.8438112352       40.3909620574  TIP3      3113            0.0000000000
     34238      3313  TIP3      H1            -33.2126969723      -24.7274610764       40.8085371497  TIP3      3113            0.0000000000
     34239      3313  TIP3      H2            -33.8729207563      -25.4316270490       39.6540601392  TIP3      3113            0.0000000000
     34240      3314  TIP3      OH2           -36.0784963224      -31.9277941477       39.9797130517  TIP3      3114            0.0000000000
     34241      3314  TIP3      H1            -35.6560566936      -31.0685435410       40.1483335442  TIP3      3114            0.0000000000
     34242      3314  TIP3      H2            -36.6522768650      -31.7289283080       39.2233646927  TIP3      3114            0.0000000000
     34243      3315  TIP3      OH2           -22.4605083113      -21.1324702586       49.6543133009  TIP3      3115            0.0000000000
     34244      3315  TIP3      H1            -22.3327113050      -20.3589014686       49.0702561240  TIP3      3115            0.0000000000
     34245      3315  TIP3      H2            -21.6001513139      -21.2333164827       50.0794693965  TIP3      3115            0.0000000000
     34246      3316  TIP3      OH2           -34.8576897274      -36.7304379390       48.5182429899  TIP3      3116            0.0000000000
     34247      3316  TIP3      H1            -35.1582907975      -36.6786810230       47.5895960871  TIP3      3116            0.0000000000
     34248      3316  TIP3      H2            -34.9284591746      -37.7057555424       48.6171686410  TIP3      3116            0.0000000000
     34249      3317  TIP3      OH2           -36.3892524385      -23.8343325214       44.1587768059  TIP3      3117            0.0000000000
     34250      3317  TIP3      H1            -37.1581861842      -23.3172721605       44.4335785610  TIP3      3117            0.0000000000
     34251      3317  TIP3      H2            -35.8999920454      -23.1302543413       43.6896627660  TIP3      3117            0.0000000000
     34252      3318  TIP3      OH2           -28.1039483576      -21.9997649118       38.7460162409  TIP3      3118            0.0000000000
     34253      3318  TIP3      H1            -28.6016691789      -22.7999046700       39.0064057556  TIP3      3118            0.0000000000
     34254      3318  TIP3      H2            -27.3187153297      -22.4081179490       38.3197610985  TIP3      3118            0.0000000000
     34255      3319  TIP3      OH2           -23.5626164331      -22.7765632186       38.9494276869  TIP3      3119            0.0000000000
     34256      3319  TIP3      H1            -23.4277998178      -23.4606541528       39.6377030285  TIP3      3119            0.0000000000
     34257      3319  TIP3      H2            -22.7236269402      -22.7840051199       38.4599308813  TIP3      3119            0.0000000000
     34258      3320  TIP3      OH2           -32.6959631190      -26.9503464652       38.8391139124  TIP3      3120            0.0000000000
     34259      3320  TIP3      H1            -32.3404143574      -27.1091484775       39.7300844493  TIP3      3120            0.0000000000
     34260      3320  TIP3      H2            -31.8539053440      -26.9735848658       38.3062769860  TIP3      3120            0.0000000000
     34261      3321  TIP3      OH2           -27.0700497387      -25.3777617057       38.7594804887  TIP3      3121            0.0000000000
     34262      3321  TIP3      H1            -27.4168022482      -25.5089960553       39.6633300650  TIP3      3121            0.0000000000
     34263      3321  TIP3      H2            -27.1211189344      -26.3170103557       38.4497759235  TIP3      3121            0.0000000000
     34264      3322  TIP3      OH2           -31.3939861560      -28.5221604140       41.5323171056  TIP3      3122            0.0000000000
     34265      3322  TIP3      H1            -32.0730179359      -29.1389730718       41.8387732851  TIP3      3122            0.0000000000
     34266      3322  TIP3      H2            -30.8980703739      -29.0829885963       40.9050755266  TIP3      3122            0.0000000000
     34267      3323  TIP3      OH2           -30.1898434994      -30.3092492154       39.2306836234  TIP3      3123            0.0000000000
     34268      3323  TIP3      H1            -30.1986514467      -29.7650607057       38.4185185215  TIP3      3123            0.0000000000
     34269      3323  TIP3      H2            -29.2337918085      -30.2458334172       39.4693720409  TIP3      3123            0.0000000000
     34270      3324  TIP3      OH2           -21.0992132951      -28.2544234314       38.7649089801  TIP3      3124            0.0000000000
     34271      3324  TIP3      H1            -21.2973542738      -28.5143086078       37.8405705586  TIP3      3124            0.0000000000
     34272      3324  TIP3      H2            -21.1778431826      -27.2674061994       38.7218846945  TIP3      3124            0.0000000000
     34273      3325  TIP3      OH2           -30.5460700241      -20.0224696653       40.7726046573  TIP3      3125            0.0000000000
     34274      3325  TIP3      H1            -29.5762225788      -19.9434865189       40.8191136380  TIP3      3125            0.0000000000
     34275      3325  TIP3      H2            -30.7169626013      -19.3882972646       40.0549865242  TIP3      3125            0.0000000000
     34276      3326  TIP3      OH2           -36.7959282381      -24.8406302498       40.4369855896  TIP3      3126            0.0000000000
     34277      3326  TIP3      H1            -35.8263496673      -24.7108171834       40.4617514244  TIP3      3126            0.0000000000
     34278      3326  TIP3      H2            -36.8968031500      -25.3199789348       39.5941306306  TIP3      3126            0.0000000000
     34279      3327  TIP3      OH2           -37.4734770442      -19.9171852896       44.9852277379  TIP3      3127            0.0000000000
     34280      3327  TIP3      H1            -38.4357456137      -19.7490751897       45.0413538055  TIP3      3127            0.0000000000
     34281      3327  TIP3      H2            -37.3275187995      -20.5384984076       45.7169458122  TIP3      3127            0.0000000000
     34282      3328  TIP3      OH2           -37.0398456167      -21.7728385294       47.0564063292  TIP3      3128            0.0000000000
     34283      3328  TIP3      H1            -36.9450946560      -22.5982293208       47.5868895902  TIP3      3128            0.0000000000
     34284      3328  TIP3      H2            -36.5474928167      -21.1759272839       47.6655020292  TIP3      3128            0.0000000000
     34285      3329  TIP3      OH2           -20.5874247628      -27.1589961151       42.6303479962  TIP3      3129            0.0000000000
     34286      3329  TIP3      H1            -19.7533459028      -26.6843117927       42.8218928238  TIP3      3129            0.0000000000
     34287      3329  TIP3      H2            -20.6415506452      -27.7534584765       43.4251942827  TIP3      3129            0.0000000000
     34288      3330  TIP3      OH2           -20.4969651472      -28.7390175686       44.7804903976  TIP3      3130            0.0000000000
     34289      3330  TIP3      H1            -21.0579295869      -29.4631733617       45.1213348092  TIP3      3130            0.0000000000
     34290      3330  TIP3      H2            -19.7132147641      -28.8495535874       45.3712988670  TIP3      3130            0.0000000000
     34291      3331  TIP3      OH2           -19.4910572332      -26.1971432482       49.4729173472  TIP3      3131            0.0000000000
     34292      3331  TIP3      H1            -19.2001156564      -26.8221762813       48.7872876277  TIP3      3131            0.0000000000
     34293      3331  TIP3      H2            -20.1663960912      -25.6674930452       49.0148488919  TIP3      3131            0.0000000000
     34294      3332  TIP3      OH2           -19.7386422232      -29.3271721601       41.0613879031  TIP3      3132            0.0000000000
     34295      3332  TIP3      H1            -20.3289862493      -29.2715803132       40.2854320933  TIP3      3132            0.0000000000
     34296      3332  TIP3      H2            -20.1127105652      -28.6090701106       41.6215496916  TIP3      3132            0.0000000000
     34297      3333  TIP3      OH2           -21.8464628334      -31.8491265790       39.4845280074  TIP3      3133            0.0000000000
     34298      3333  TIP3      H1            -21.5370296799      -31.3876965508       38.6957634867  TIP3      3133            0.0000000000
     34299      3333  TIP3      H2            -22.0120424020      -32.7829864046       39.1818172452  TIP3      3133            0.0000000000
     34300      3334  TIP3      OH2           -22.1099683368      -30.9403215479       45.3606883282  TIP3      3134            0.0000000000
     34301      3334  TIP3      H1            -22.4542908029      -31.6434557550       44.7557524332  TIP3      3134            0.0000000000
     34302      3334  TIP3      H2            -22.5850940467      -31.1107670065       46.2080866695  TIP3      3134            0.0000000000
     34303      3335  TIP3      OH2           -36.7304678450      -27.4017757070       49.3002418982  TIP3      3135            0.0000000000
     34304      3335  TIP3      H1            -36.5881772177      -27.5901917164       48.3555228415  TIP3      3135            0.0000000000
     34305      3335  TIP3      H2            -36.1443956882      -28.0915235589       49.6668127234  TIP3      3135            0.0000000000
     34306      3336  TIP3      OH2           -22.1269669970      -34.4328659375       39.0723461767  TIP3      3136            0.0000000000
     34307      3336  TIP3      H1            -21.5019050419      -35.0954056291       39.4323038316  TIP3      3136            0.0000000000
     34308      3336  TIP3      H2            -23.0018290649      -34.8664564658       39.0968620782  TIP3      3136            0.0000000000
     34309      3337  TIP3      OH2           -22.5684052752      -32.8166919273       43.6685616382  TIP3      3137            0.0000000000
     34310      3337  TIP3      H1            -22.4512625103      -33.7847088364       43.7507082129  TIP3      3137            0.0000000000
     34311      3337  TIP3      H2            -21.6837476620      -32.5706960553       43.3376442915  TIP3      3137            0.0000000000
     34312      3338  TIP3      OH2           -21.8621437216      -32.6710523455       48.5125945213  TIP3      3138            0.0000000000
     34313      3338  TIP3      H1            -20.9543017760      -32.3943197374       48.7603829069  TIP3      3138            0.0000000000
     34314      3338  TIP3      H2            -22.3836823935      -32.6104650627       49.3420289153  TIP3      3138            0.0000000000
     34315      3339  TIP3      OH2           -21.8146092741      -35.5207993955       43.9499972101  TIP3      3139            0.0000000000
     34316      3339  TIP3      H1            -21.8913673649      -35.8657787659       44.8601312048  TIP3      3139            0.0000000000
     34317      3339  TIP3      H2            -22.6531281210      -35.8223315773       43.5349407324  TIP3      3139            0.0000000000
     34318      3340  TIP3      OH2           -36.7618785973      -34.8042508223       48.9734510276  TIP3      3140            0.0000000000
     34319      3340  TIP3      H1            -36.1300380538      -35.5344121087       49.1365849140  TIP3      3140            0.0000000000
     34320      3340  TIP3      H2            -36.1861281079      -34.0440136444       49.1770210835  TIP3      3140            0.0000000000
     34321      3341  TIP3      OH2           -37.2657056992      -32.0578374811       49.8447575779  TIP3      3141            0.0000000000
     34322      3341  TIP3      H1            -37.1180663928      -32.1142004661       48.8882825028  TIP3      3141            0.0000000000
     34323      3341  TIP3      H2            -37.7358200761      -31.2059520189       49.8946570272  TIP3      3141            0.0000000000
     34324      3342  TIP3      OH2           -19.9971733694      -35.6918133529       40.5156347126  TIP3      3142            0.0000000000
     34325      3342  TIP3      H1            -19.6466223246      -36.3606693544       39.8831558088  TIP3      3142            0.0000000000
     34326      3342  TIP3      H2            -19.2159764138      -35.1917649716       40.8441838244  TIP3      3142            0.0000000000
     34327      3343  TIP3      OH2           -36.9801792727      -35.5374591834       43.9909624459  TIP3      3143            0.0000000000
     34328      3343  TIP3      H1            -37.9612436870      -35.5617049616       43.9022389739  TIP3      3143            0.0000000000
     34329      3343  TIP3      H2            -36.7822714495      -34.8675891403       43.3085891491  TIP3      3143            0.0000000000
     34330      3344  TIP3      OH2           -23.2587133738      -20.6843422163       45.7510260366  TIP3      3144            0.0000000000
     34331      3344  TIP3      H1            -22.5253578807      -20.9076355237       45.1454829411  TIP3      3144            0.0000000000
     34332      3344  TIP3      H2            -22.8387989563      -20.0950350533       46.3984442526  TIP3      3144            0.0000000000
     34333      3345  TIP3      OH2           -35.6870590669      -20.7643256624       49.2579223323  TIP3      3145            0.0000000000
     34334      3345  TIP3      H1            -35.4762433765      -20.5255266769       50.1723577279  TIP3      3145            0.0000000000
     34335      3345  TIP3      H2            -34.8806412653      -21.2700059812       49.0218353031  TIP3      3145            0.0000000000
     34336      3346  TIP3      OH2           -33.9579345933      -22.2857559770       47.8543610874  TIP3      3146            0.0000000000
     34337      3346  TIP3      H1            -34.2109904649      -23.2191803245       47.9729774146  TIP3      3146            0.0000000000
     34338      3346  TIP3      H2            -33.0318936701      -22.2656070704       48.1748751702  TIP3      3146            0.0000000000
     34339      3347  TIP3      OH2           -31.3284584323      -21.7846817555       48.8728804837  TIP3      3147            0.0000000000
     34340      3347  TIP3      H1            -31.1138194922      -22.7099854854       48.6326612295  TIP3      3147            0.0000000000
     34341      3347  TIP3      H2            -30.9655479062      -21.6935683797       49.7578668355  TIP3      3147            0.0000000000
     34342      3348  TIP3      OH2           -28.0015700900      -35.5162348483       48.1741502592  TIP3      3148            0.0000000000
     34343      3348  TIP3      H1            -28.5341889797      -36.3335196340       48.2025828315  TIP3      3148            0.0000000000
     34344      3348  TIP3      H2            -27.3635643918      -35.7652883617       47.4747491077  TIP3      3148            0.0000000000
     34345      3349  TIP3      OH2           -22.7297923248      -37.3285407689       48.3563939685  TIP3      3149            0.0000000000
     34346      3349  TIP3      H1            -21.9845771568      -36.8634281673       47.9240371293  TIP3      3149            0.0000000000
     34347      3349  TIP3      H2            -23.4651783784      -36.8290685067       47.9821229141  TIP3      3149            0.0000000000
     34348      3350  TIP3      OH2           -20.8476276512      -36.6416002595       46.3075796131  TIP3      3150            0.0000000000
     34349      3350  TIP3      H1            -20.2687650263      -37.2538795857       45.8396757025  TIP3      3150            0.0000000000
     34350      3350  TIP3      H2            -20.3968083041      -35.7823783053       46.1537203952  TIP3      3150            0.0000000000
     34351      3351  TIP3      OH2           -35.4399923558      -36.8833751787       45.8684085336  TIP3      3151            0.0000000000
     34352      3351  TIP3      H1            -36.0736373309      -36.5797754584       45.1861148606  TIP3      3151            0.0000000000
     34353      3351  TIP3      H2            -35.5145533670      -37.8626917110       45.7690111809  TIP3      3151            0.0000000000
     34354      3352  TIP3      OH2           -37.3946062113      -37.0736135370       41.5030143882  TIP3      3152            0.0000000000
     34355      3352  TIP3      H1            -36.8062071853      -36.7969883113       40.7810600787  TIP3      3152            0.0000000000
     34356      3352  TIP3      H2            -37.0573589449      -36.5340661150       42.2451695970  TIP3      3152            0.0000000000
     34357      3353  TIP3      OH2           -30.7563095905      -37.2064451983       45.0677536660  TIP3      3153            0.0000000000
     34358      3353  TIP3      H1            -29.8065187908      -36.9316672255       45.0721877348  TIP3      3153            0.0000000000
     34359      3353  TIP3      H2            -31.0941466009      -36.7456014513       45.8502479383  TIP3      3153            0.0000000000
     34360      3354  TIP3      OH2           -25.9371760167      -36.7239252182       46.7878978897  TIP3      3154            0.0000000000
     34361      3354  TIP3      H1            -25.2090012796      -36.6390056353       46.1584222141  TIP3      3154            0.0000000000
     34362      3354  TIP3      H2            -25.5827740487      -37.3565618421       47.4197495220  TIP3      3154            0.0000000000
     34363      3355  TIP3      OH2           -23.9669708290      -36.5253471183       42.5187422510  TIP3      3155            0.0000000000
     34364      3355  TIP3      H1            -24.9031139565      -36.2438500675       42.4479015123  TIP3      3155            0.0000000000
     34365      3355  TIP3      H2            -24.0609652593      -37.4640551150       42.7167663531  TIP3      3155            0.0000000000
     34366      3356  TIP3      OH2           -36.4437739288      -21.4390365661       42.5494524701  TIP3      3156            0.0000000000
     34367      3356  TIP3      H1            -37.3992215327      -21.3686228583       42.3913438241  TIP3      3156            0.0000000000
     34368      3356  TIP3      H2            -36.1844347717      -20.5307449660       42.2569198471  TIP3      3156            0.0000000000
     34369      3357  TIP3      OH2           -35.2001515831      -36.3720860541       39.9492893631  TIP3      3157            0.0000000000
     34370      3357  TIP3      H1            -34.4717655979      -36.6367253288       39.3306394862  TIP3      3157            0.0000000000
     34371      3357  TIP3      H2            -34.6919960877      -35.9197164666       40.6475640550  TIP3      3157            0.0000000000
     34372      3358  TIP3      OH2           -29.8549912948      -35.3106499693       42.4612711382  TIP3      3158            0.0000000000
     34373      3358  TIP3      H1            -29.5802932892      -36.0328622725       43.0553485114  TIP3      3158            0.0000000000
     34374      3358  TIP3      H2            -29.4451735565      -34.5368727099       42.9158094282  TIP3      3158            0.0000000000
     34375      3359  TIP3      OH2           -27.7017781822      -20.4656846649       40.8539657878  TIP3      3159            0.0000000000
     34376      3359  TIP3      H1            -26.7505388042      -20.4278261687       40.6314725414  TIP3      3159            0.0000000000
     34377      3359  TIP3      H2            -27.9911957472      -20.9911471571       40.0696395898  TIP3      3159            0.0000000000
     34378      3360  TIP3      OH2           -21.3642046835      -21.3366768132       43.8096056134  TIP3      3160            0.0000000000
     34379      3360  TIP3      H1            -21.5749772698      -22.0976682032       43.2230167877  TIP3      3160            0.0000000000
     34380      3360  TIP3      H2            -21.3552889258      -20.6030891042       43.1641055284  TIP3      3160            0.0000000000
     34381      3361  TIP3      OH2           -35.2426444402      -21.0169656808       39.4356216987  TIP3      3161            0.0000000000
     34382      3361  TIP3      H1            -35.3668285021      -20.7705120919       40.3629568395  TIP3      3161            0.0000000000
     34383      3361  TIP3      H2            -34.5314530136      -21.6671262203       39.5313835501  TIP3      3161            0.0000000000
     34384      3362  TIP3      OH2            -7.5510631089      -28.3567415250       45.7012398718  TIP3      3162            0.0000000000
     34385      3362  TIP3      H1             -7.5227936557      -27.3869905523       45.7776876908  TIP3      3162            0.0000000000
     34386      3362  TIP3      H2             -8.2678817170      -28.4598589008       45.0682368702  TIP3      3162            0.0000000000
     34387      3363  TIP3      OH2            -8.6117394191      -29.3105436905       48.8896096172  TIP3      3163            0.0000000000
     34388      3363  TIP3      H1             -8.6920275123      -29.7452415334       49.7610517784  TIP3      3163            0.0000000000
     34389      3363  TIP3      H2             -9.1828654942      -29.8406797102       48.3115968953  TIP3      3163            0.0000000000
     34390      3364  TIP3      OH2            -5.5468430764      -26.3992376116       47.1965021133  TIP3      3164            0.0000000000
     34391      3364  TIP3      H1             -5.8073577117      -27.1241987962       47.8053087906  TIP3      3164            0.0000000000
     34392      3364  TIP3      H2             -5.2024018439      -25.7495614409       47.8447972354  TIP3      3164            0.0000000000
     34393      3365  TIP3      OH2           -15.1597415663      -24.8815040656       49.0613573900  TIP3      3165            0.0000000000
     34394      3365  TIP3      H1            -15.3970036548      -25.7959886477       48.7820662700  TIP3      3165            0.0000000000
     34395      3365  TIP3      H2            -14.1967198744      -24.8623160984       48.9246550434  TIP3      3165            0.0000000000
     34396      3366  TIP3      OH2           -18.3596627400      -31.7824711178       44.3563262816  TIP3      3166            0.0000000000
     34397      3366  TIP3      H1            -18.6780900615      -30.8676305980       44.3923559179  TIP3      3166            0.0000000000
     34398      3366  TIP3      H2            -19.1901663195      -32.2742196801       44.3566139417  TIP3      3166            0.0000000000
     34399      3367  TIP3      OH2           -18.2740564157      -29.3148676599       46.2199863110  TIP3      3167            0.0000000000
     34400      3367  TIP3      H1            -17.8810283445      -30.0654547997       46.7214457156  TIP3      3167            0.0000000000
     34401      3367  TIP3      H2            -17.5149165573      -28.9316114680       45.7622932470  TIP3      3167            0.0000000000
     34402      3368  TIP3      OH2            -7.9038655774      -20.7755954207       47.5388511754  TIP3      3168            0.0000000000
     34403      3368  TIP3      H1             -7.3243978032      -21.3045177026       46.9462598369  TIP3      3168            0.0000000000
     34404      3368  TIP3      H2             -8.1347187538      -21.4783500354       48.1532581204  TIP3      3168            0.0000000000
     34405      3369  TIP3      OH2            -9.8741072392      -26.5987115329       49.9938986637  TIP3      3169            0.0000000000
     34406      3369  TIP3      H1             -9.4820633189      -27.0158624589       49.2073183423  TIP3      3169            0.0000000000
     34407      3369  TIP3      H2             -9.2148467442      -26.8303456428       50.6549628650  TIP3      3169            0.0000000000
     34408      3370  TIP3      OH2            -6.8444986152      -32.4907623098       49.9855721787  TIP3      3170            0.0000000000
     34409      3370  TIP3      H1             -6.6534328167      -33.4337734308       50.0195886058  TIP3      3170            0.0000000000
     34410      3370  TIP3      H2             -6.8951216391      -32.3434917233       49.0258640841  TIP3      3170            0.0000000000
     34411      3371  TIP3      OH2           -13.7242198698      -34.3973900881       46.8854361307  TIP3      3171            0.0000000000
     34412      3371  TIP3      H1            -13.6045449003      -33.5200562879       46.4522329237  TIP3      3171            0.0000000000
     34413      3371  TIP3      H2            -14.2390536008      -34.8829328141       46.2076098666  TIP3      3171            0.0000000000
     34414      3372  TIP3      OH2            -6.3757430958      -34.0042839845       45.4295617878  TIP3      3172            0.0000000000
     34415      3372  TIP3      H1             -5.7970736096      -34.4907559502       46.0620342598  TIP3      3172            0.0000000000
     34416      3372  TIP3      H2             -5.7411741584      -33.3732314333       45.0625900289  TIP3      3172            0.0000000000
     34417      3373  TIP3      OH2           -17.0900906358      -31.3836519055       47.5054133103  TIP3      3173            0.0000000000
     34418      3373  TIP3      H1            -16.5258610972      -31.9283986858       48.0678880512  TIP3      3173            0.0000000000
     34419      3373  TIP3      H2            -17.0862969185      -31.9565329426       46.7093234105  TIP3      3173            0.0000000000
     34420      3374  TIP3      OH2           -12.4386680810      -30.2277034665       47.1848425650  TIP3      3174            0.0000000000
     34421      3374  TIP3      H1            -11.7912068966      -30.8388387960       47.5757510542  TIP3      3174            0.0000000000
     34422      3374  TIP3      H2            -12.9205847895      -30.8674082948       46.6126773674  TIP3      3174            0.0000000000
     34423      3375  TIP3      OH2            -8.1781844396      -25.9554460740       44.4390287351  TIP3      3175            0.0000000000
     34424      3375  TIP3      H1             -8.3524928754      -25.9616698041       43.4814718897  TIP3      3175            0.0000000000
     34425      3375  TIP3      H2             -8.3865988516      -25.0138019749       44.6575385997  TIP3      3175            0.0000000000
     34426      3376  TIP3      OH2            -4.7293856489      -34.6536581917       47.3644733683  TIP3      3176            0.0000000000
     34427      3376  TIP3      H1             -5.1067766466      -34.8942619599       48.2245720138  TIP3      3176            0.0000000000
     34428      3376  TIP3      H2             -3.7850907357      -34.6276561721       47.5674954302  TIP3      3176            0.0000000000
     34429      3377  TIP3      OH2           -15.2747464681      -33.3361894909       48.8733649764  TIP3      3177            0.0000000000
     34430      3377  TIP3      H1            -15.0582837095      -32.4126665018       48.6910577211  TIP3      3177            0.0000000000
     34431      3377  TIP3      H2            -14.9204493303      -33.7690916842       48.0637166731  TIP3      3177            0.0000000000
     34432      3378  TIP3      OH2           -18.0226310941      -26.1343771818       42.7464101531  TIP3      3178            0.0000000000
     34433      3378  TIP3      H1            -18.0959881447      -25.5783141871       41.9411901869  TIP3      3178            0.0000000000
     34434      3378  TIP3      H2            -17.9456207025      -25.4518821335       43.4373176902  TIP3      3178            0.0000000000
     34435      3379  TIP3      OH2            -4.4006363962      -24.7851607673       48.9495950156  TIP3      3179            0.0000000000
     34436      3379  TIP3      H1             -4.9074788916      -25.2880330930       49.6176308362  TIP3      3179            0.0000000000
     34437      3379  TIP3      H2             -3.9724744466      -24.1441230067       49.5196451046  TIP3      3179            0.0000000000
     34438      3380  TIP3      OH2           -11.0821865225      -37.4971855662       48.2017611804  TIP3      3180            0.0000000000
     34439      3380  TIP3      H1            -10.9808479756      -38.4660007641       48.3204640170  TIP3      3180            0.0000000000
     34440      3380  TIP3      H2            -11.8137074638      -37.3462503543       48.8294972561  TIP3      3180            0.0000000000
     34441      3381  TIP3      OH2            -6.3893568766      -22.4708254099       46.1427173428  TIP3      3181            0.0000000000
     34442      3381  TIP3      H1             -5.9359910048      -23.3110239316       45.9335807638  TIP3      3181            0.0000000000
     34443      3381  TIP3      H2             -5.6413547049      -21.8507130986       45.9853550576  TIP3      3181            0.0000000000
     34444      3382  TIP3      OH2            -4.8041491380      -24.5829974408       45.0499237389  TIP3      3182            0.0000000000
     34445      3382  TIP3      H1             -4.9309086448      -25.2506010813       44.3490659938  TIP3      3182            0.0000000000
     34446      3382  TIP3      H2             -4.8874708775      -25.1643786265       45.8330157111  TIP3      3182            0.0000000000
     34447      3383  TIP3      OH2            -8.9334223451      -29.1882623133       43.0208438675  TIP3      3183            0.0000000000
     34448      3383  TIP3      H1             -9.3751083381      -28.3295521589       42.8851904523  TIP3      3183            0.0000000000
     34449      3383  TIP3      H2             -8.1657693863      -29.1306075779       42.4310078662  TIP3      3183            0.0000000000
     34450      3384  TIP3      OH2            -8.7733993760      -30.1857033191       40.0303732878  TIP3      3184            0.0000000000
     34451      3384  TIP3      H1             -8.0029061433      -29.7605845264       40.4469987536  TIP3      3184            0.0000000000
     34452      3384  TIP3      H2             -8.4671347002      -31.0935016895       39.9104619944  TIP3      3184            0.0000000000
     34453      3385  TIP3      OH2            -5.1448873359      -29.2400508402       44.0728467648  TIP3      3185            0.0000000000
     34454      3385  TIP3      H1             -5.8207101876      -28.8665778543       44.6735973276  TIP3      3185            0.0000000000
     34455      3385  TIP3      H2             -4.4385164996      -29.4877858142       44.6949246909  TIP3      3185            0.0000000000
     34456      3386  TIP3      OH2           -13.8072836640      -28.3756768928       45.8426500860  TIP3      3186            0.0000000000
     34457      3386  TIP3      H1            -14.1432248399      -28.8842641289       45.0729503766  TIP3      3186            0.0000000000
     34458      3386  TIP3      H2            -13.2719760036      -29.0524762919       46.3121654333  TIP3      3186            0.0000000000
     34459      3387  TIP3      OH2           -12.3616425269      -24.6481469397       48.6120350941  TIP3      3187            0.0000000000
     34460      3387  TIP3      H1            -12.5429293437      -24.8832862590       47.6804362114  TIP3      3187            0.0000000000
     34461      3387  TIP3      H2            -11.7386057919      -25.3328010377       48.8808505587  TIP3      3187            0.0000000000
     34462      3388  TIP3      OH2           -13.9286487887      -29.7555022686       49.3741992239  TIP3      3188            0.0000000000
     34463      3388  TIP3      H1            -13.3505842464      -29.8411964278       48.5829283938  TIP3      3188            0.0000000000
     34464      3388  TIP3      H2            -13.5086545740      -29.0490363584       49.9114760171  TIP3      3188            0.0000000000
     34465      3389  TIP3      OH2            -6.5263782168      -29.5657879520       41.7084574376  TIP3      3189            0.0000000000
     34466      3389  TIP3      H1             -6.0000948124      -29.3687891367       42.5201470179  TIP3      3189            0.0000000000
     34467      3389  TIP3      H2             -5.9926574567      -29.0946238704       41.0106020449  TIP3      3189            0.0000000000
     34468      3390  TIP3      OH2            -8.8182285792      -23.3800366087       44.7439444876  TIP3      3190            0.0000000000
     34469      3390  TIP3      H1             -8.0967593967      -23.0410240336       45.2976168731  TIP3      3190            0.0000000000
     34470      3390  TIP3      H2             -9.2134088340      -22.5588390187       44.4156184006  TIP3      3190            0.0000000000
     34471      3391  TIP3      OH2            -2.7598045240      -37.3601261761       41.9859891746  TIP3      3191            0.0000000000
     34472      3391  TIP3      H1             -3.6298764486      -36.9294750518       42.0833866534  TIP3      3191            0.0000000000
     34473      3391  TIP3      H2             -2.2890679292      -36.6558897486       41.5002357363  TIP3      3191            0.0000000000
     34474      3392  TIP3      OH2           -15.1141612512      -29.3645607012       43.5775883864  TIP3      3192            0.0000000000
     34475      3392  TIP3      H1            -15.2607582251      -28.4831373270       43.1736885184  TIP3      3192            0.0000000000
     34476      3392  TIP3      H2            -15.4546833605      -29.9550335847       42.8942602965  TIP3      3192            0.0000000000
     34477      3393  TIP3      OH2            -1.6277057953      -23.6833660684       40.0444774448  TIP3      3193            0.0000000000
     34478      3393  TIP3      H1             -1.3609626523      -22.7510237499       40.2214114090  TIP3      3193            0.0000000000
     34479      3393  TIP3      H2             -0.7682747763      -24.1227245347       40.2230180904  TIP3      3193            0.0000000000
     34480      3394  TIP3      OH2           -18.7109441304      -23.6398467433       48.5089894485  TIP3      3194            0.0000000000
     34481      3394  TIP3      H1            -18.0251505624      -24.2675517538       48.7866819667  TIP3      3194            0.0000000000
     34482      3394  TIP3      H2            -18.9513983730      -23.1918760519       49.3212578483  TIP3      3194            0.0000000000
     34483      3395  TIP3      OH2            -9.0920862760      -20.4112541185       43.5285064592  TIP3      3195            0.0000000000
     34484      3395  TIP3      H1             -9.1438208506      -20.2280486887       42.5674699671  TIP3      3195            0.0000000000
     34485      3395  TIP3      H2             -9.1938453630      -19.4946916441       43.8666719655  TIP3      3195            0.0000000000
     34486      3396  TIP3      OH2           -15.5942451716      -21.4208627942       45.2426829233  TIP3      3196            0.0000000000
     34487      3396  TIP3      H1            -15.3891609615      -21.5928303875       46.1881804932  TIP3      3196            0.0000000000
     34488      3396  TIP3      H2            -16.4661104471      -21.8526152408       45.1439908893  TIP3      3196            0.0000000000
     34489      3397  TIP3      OH2            -6.0691330132      -20.9049332267       40.4469925448  TIP3      3197            0.0000000000
     34490      3397  TIP3      H1             -5.6104575064      -21.7094131732       40.1089745291  TIP3      3197            0.0000000000
     34491      3397  TIP3      H2             -6.0421925362      -21.0269075140       41.4095764786  TIP3      3197            0.0000000000
     34492      3398  TIP3      OH2            -6.4680240758      -21.1028883850       43.2026055383  TIP3      3198            0.0000000000
     34493      3398  TIP3      H1             -7.4098282348      -20.8502102600       43.3094910299  TIP3      3198            0.0000000000
     34494      3398  TIP3      H2             -6.3960882850      -21.8526856407       43.8142419105  TIP3      3198            0.0000000000
     34495      3399  TIP3      OH2           -13.6368092312      -36.7034468828       49.5184206292  TIP3      3199            0.0000000000
     34496      3399  TIP3      H1            -14.4183138593      -36.4528391512       48.9852713501  TIP3      3199            0.0000000000
     34497      3399  TIP3      H2            -13.2379763049      -35.8213762681       49.6517994581  TIP3      3199            0.0000000000
     34498      3400  TIP3      OH2            -4.9921490089      -28.3184954278       39.9123586700  TIP3      3200            0.0000000000
     34499      3400  TIP3      H1             -5.1672557838      -28.1866132528       38.9578955638  TIP3      3200            0.0000000000
     34500      3400  TIP3      H2             -4.0219763676      -28.1898954501       39.8997841278  TIP3      3200            0.0000000000
     34501      3401  TIP3      OH2            -9.6241693440      -34.8168074025       40.4545902232  TIP3      3201            0.0000000000
     34502      3401  TIP3      H1             -9.9516087804      -35.4667782674       41.0921032061  TIP3      3201            0.0000000000
     34503      3401  TIP3      H2            -10.1289413631      -35.0461829774       39.6599376244  TIP3      3201            0.0000000000
     34504      3402  TIP3      OH2           -13.6874485517      -32.0377822664       45.7752122110  TIP3      3202            0.0000000000
     34505      3402  TIP3      H1            -14.6189418703      -32.2839452160       45.5930969973  TIP3      3202            0.0000000000
     34506      3402  TIP3      H2            -13.2765769144      -32.1162516737       44.8769087775  TIP3      3202            0.0000000000
     34507      3403  TIP3      OH2            -7.9600596480      -31.4000424463       44.1307978725  TIP3      3203            0.0000000000
     34508      3403  TIP3      H1             -8.3711700814      -30.5847971454       43.7531781370  TIP3      3203            0.0000000000
     34509      3403  TIP3      H2             -7.3985014604      -31.6814982701       43.3821128575  TIP3      3203            0.0000000000
     34510      3404  TIP3      OH2            -7.1191627524      -32.0893251594       47.1823236809  TIP3      3204            0.0000000000
     34511      3404  TIP3      H1             -7.2900082012      -31.4431249511       46.4657851607  TIP3      3204            0.0000000000
     34512      3404  TIP3      H2             -6.9799362439      -32.8881792451       46.6204574806  TIP3      3204            0.0000000000
     34513      3405  TIP3      OH2           -13.0606421739      -34.5587588782       38.9461150451  TIP3      3205            0.0000000000
     34514      3405  TIP3      H1            -13.4001885977      -34.7874974506       39.8343910566  TIP3      3205            0.0000000000
     34515      3405  TIP3      H2            -13.7730644940      -33.9882929423       38.6053222449  TIP3      3205            0.0000000000
     34516      3406  TIP3      OH2           -19.2015362639      -34.3004693922       46.2788559980  TIP3      3206            0.0000000000
     34517      3406  TIP3      H1            -18.5934294763      -34.5156500981       47.0049309861  TIP3      3206            0.0000000000
     34518      3406  TIP3      H2            -18.7732421969      -34.7301773126       45.5198567463  TIP3      3206            0.0000000000
     34519      3407  TIP3      OH2           -18.3637056340      -33.9816716959       41.7578027066  TIP3      3207            0.0000000000
     34520      3407  TIP3      H1            -17.7345715966      -33.5710040842       41.1338995189  TIP3      3207            0.0000000000
     34521      3407  TIP3      H2            -18.9027049671      -33.2019376799       41.9867539350  TIP3      3207            0.0000000000
     34522      3408  TIP3      OH2           -10.8157869066      -34.4707914742       46.3055323864  TIP3      3208            0.0000000000
     34523      3408  TIP3      H1            -11.7083326670      -34.7721940814       46.5664664809  TIP3      3208            0.0000000000
     34524      3408  TIP3      H2            -10.2930235703      -34.7708411311       47.0814899513  TIP3      3208            0.0000000000
     34525      3409  TIP3      OH2           -16.4323195303      -33.1649132324       45.5552494961  TIP3      3209            0.0000000000
     34526      3409  TIP3      H1            -17.1071761405      -32.6779837755       45.0240071431  TIP3      3209            0.0000000000
     34527      3409  TIP3      H2            -16.2103456989      -33.9350051557       44.9859388098  TIP3      3209            0.0000000000
     34528      3410  TIP3      OH2           -12.7913990070      -32.3618056117       43.2597650999  TIP3      3210            0.0000000000
     34529      3410  TIP3      H1            -11.9149658244      -32.5577526987       42.8764266846  TIP3      3210            0.0000000000
     34530      3410  TIP3      H2            -13.2675581083      -32.0312889199       42.4826222161  TIP3      3210            0.0000000000
     34531      3411  TIP3      OH2            -6.8640889897      -35.5698244858       49.6077668950  TIP3      3211            0.0000000000
     34532      3411  TIP3      H1             -7.0102353003      -35.6508244530       50.5636927428  TIP3      3211            0.0000000000
     34533      3411  TIP3      H2             -7.7879286677      -35.5860916808       49.2734114491  TIP3      3211            0.0000000000
     34534      3412  TIP3      OH2           -13.8676339624      -31.3495364907       40.3490703327  TIP3      3212            0.0000000000
     34535      3412  TIP3      H1            -14.1202565957      -31.8115040623       39.5168071327  TIP3      3212            0.0000000000
     34536      3412  TIP3      H2            -12.9887716441      -31.0328796311       40.0482470767  TIP3      3212            0.0000000000
     34537      3413  TIP3      OH2            -9.9216740339      -31.9162325904       48.6292721238  TIP3      3213            0.0000000000
     34538      3413  TIP3      H1             -9.2133234833      -32.0627238199       47.9677576445  TIP3      3213            0.0000000000
     34539      3413  TIP3      H2             -9.7624181873      -32.6808526231       49.2040169628  TIP3      3213            0.0000000000
     34540      3414  TIP3      OH2           -14.9845738056      -35.2761334951       44.5000423571  TIP3      3214            0.0000000000
     34541      3414  TIP3      H1            -15.3584086246      -36.0913445274       44.9129268285  TIP3      3214            0.0000000000
     34542      3414  TIP3      H2            -14.3222584100      -35.6596361799       43.9042220528  TIP3      3214            0.0000000000
     34543      3415  TIP3      OH2           -10.5458432132      -26.8708051187       42.6306208081  TIP3      3215            0.0000000000
     34544      3415  TIP3      H1            -11.2590054944      -27.3959050068       42.2105273516  TIP3      3215            0.0000000000
     34545      3415  TIP3      H2            -10.9927869812      -26.6670432287       43.4868895638  TIP3      3215            0.0000000000
     34546      3416  TIP3      OH2            -7.0039748717      -34.2805120823       40.4890752338  TIP3      3216            0.0000000000
     34547      3416  TIP3      H1             -7.9929944918      -34.2818035155       40.5267334548  TIP3      3216            0.0000000000
     34548      3416  TIP3      H2             -6.7710191776      -33.4499964413       40.9557564976  TIP3      3216            0.0000000000
     34549      3417  TIP3      OH2            -6.2406196537      -32.2915129373       42.0575624562  TIP3      3217            0.0000000000
     34550      3417  TIP3      H1             -5.4440800270      -32.3913504357       42.6075565518  TIP3      3217            0.0000000000
     34551      3417  TIP3      H2             -6.1130299190      -31.4047641679       41.6653209133  TIP3      3217            0.0000000000
     34552      3418  TIP3      OH2           -15.6974892987      -27.3543292675       48.1344761941  TIP3      3218            0.0000000000
     34553      3418  TIP3      H1            -15.2272080673      -27.3593013926       47.2864176305  TIP3      3218            0.0000000000
     34554      3418  TIP3      H2            -15.1274364788      -27.8877177298       48.7120955261  TIP3      3218            0.0000000000
     34555      3419  TIP3      OH2            -8.5892793157      -25.5584233486       41.4927099449  TIP3      3219            0.0000000000
     34556      3419  TIP3      H1             -8.9868166633      -24.6691381165       41.6418309576  TIP3      3219            0.0000000000
     34557      3419  TIP3      H2             -9.2980349336      -26.1373195268       41.8463661720  TIP3      3219            0.0000000000
     34558      3420  TIP3      OH2            -1.3667943402      -32.0150333891       42.1327412106  TIP3      3220            0.0000000000
     34559      3420  TIP3      H1             -1.8019741957      -32.3349764240       41.3152525185  TIP3      3220            0.0000000000
     34560      3420  TIP3      H2             -1.2122435740      -31.0675881526       41.9211901636  TIP3      3220            0.0000000000
     34561      3421  TIP3      OH2            -3.4336790073      -23.2691533823       42.1534439772  TIP3      3221            0.0000000000
     34562      3421  TIP3      H1             -3.5794434116      -23.9077674194       42.8688943308  TIP3      3221            0.0000000000
     34563      3421  TIP3      H2             -2.8149642690      -23.7156657216       41.5455365808  TIP3      3221            0.0000000000
     34564      3422  TIP3      OH2            -5.9710492363      -28.5023086664       48.9890718386  TIP3      3222            0.0000000000
     34565      3422  TIP3      H1             -6.8905286166      -28.8306916210       48.8545840848  TIP3      3222            0.0000000000
     34566      3422  TIP3      H2             -5.4614946848      -29.1454237440       48.4495894978  TIP3      3222            0.0000000000
     34567      3423  TIP3      OH2           -13.3849328921      -24.1502051236       45.9969705169  TIP3      3223            0.0000000000
     34568      3423  TIP3      H1            -12.8784093662      -23.3218342377       45.9069271585  TIP3      3223            0.0000000000
     34569      3423  TIP3      H2            -14.0872738247      -23.9876763412       45.3570119651  TIP3      3223            0.0000000000
     34570      3424  TIP3      OH2           -16.9783595272      -28.9991176995       40.3398546041  TIP3      3224            0.0000000000
     34571      3424  TIP3      H1            -16.5885058446      -28.4669334670       41.0596441134  TIP3      3224            0.0000000000
     34572      3424  TIP3      H2            -17.9461805940      -28.9676457189       40.4900750926  TIP3      3224            0.0000000000
     34573      3425  TIP3      OH2           -12.0164545940      -26.4853559011       44.8896771367  TIP3      3225            0.0000000000
     34574      3425  TIP3      H1            -12.4120568450      -25.6848096185       45.2656427341  TIP3      3225            0.0000000000
     34575      3425  TIP3      H2            -12.4808049927      -27.1898673105       45.3836282611  TIP3      3225            0.0000000000
     34576      3426  TIP3      OH2           -12.9714762268      -21.6994784081       44.4612637848  TIP3      3226            0.0000000000
     34577      3426  TIP3      H1            -13.9412810652      -21.5959187736       44.5767640167  TIP3      3226            0.0000000000
     34578      3426  TIP3      H2            -12.6642081590      -20.8632760797       44.8776970130  TIP3      3226            0.0000000000
     34579      3427  TIP3      OH2            -5.2769463101      -25.2974078343       40.2962684689  TIP3      3227            0.0000000000
     34580      3427  TIP3      H1             -5.1301156853      -25.5612195894       41.2235780648  TIP3      3227            0.0000000000
     34581      3427  TIP3      H2             -6.1954910694      -25.5918288410       40.1820744878  TIP3      3227            0.0000000000
     34582      3428  TIP3      OH2            -1.0479019310      -21.0453441135       40.6903039063  TIP3      3228            0.0000000000
     34583      3428  TIP3      H1             -0.4364928754      -20.4209309301       40.2765415243  TIP3      3228            0.0000000000
     34584      3428  TIP3      H2             -1.7436285299      -20.4225443090       41.0099811965  TIP3      3228            0.0000000000
     34585      3429  TIP3      OH2            -4.5036092612      -26.8537677336       42.6963474927  TIP3      3229            0.0000000000
     34586      3429  TIP3      H1             -4.6794793996      -27.8008908895       42.8253436938  TIP3      3229            0.0000000000
     34587      3429  TIP3      H2             -3.5379513595      -26.8488146300       42.5342553441  TIP3      3229            0.0000000000
     34588      3430  TIP3      OH2           -11.3458854536      -23.7408019710       38.8099497301  TIP3      3230            0.0000000000
     34589      3430  TIP3      H1            -11.4455989387      -24.3427526571       38.0556991964  TIP3      3230            0.0000000000
     34590      3430  TIP3      H2            -11.9673402259      -24.1165000770       39.4571426894  TIP3      3230            0.0000000000
     34591      3431  TIP3      OH2           -12.5728496080      -24.7975190121       41.2922962547  TIP3      3231            0.0000000000
     34592      3431  TIP3      H1            -11.7909938351      -25.1993519184       41.6976235525  TIP3      3231            0.0000000000
     34593      3431  TIP3      H2            -12.4623491108      -23.8650263416       41.5906014749  TIP3      3231            0.0000000000
     34594      3432  TIP3      OH2           -15.6577752917      -27.2695403284       41.9138044717  TIP3      3232            0.0000000000
     34595      3432  TIP3      H1            -16.5379349844      -26.8826242511       42.1184566689  TIP3      3232            0.0000000000
     34596      3432  TIP3      H2            -15.2338538261      -26.5499245702       41.4091527640  TIP3      3232            0.0000000000
     34597      3433  TIP3      OH2            -7.5834263842      -35.2743986908       43.4762398314  TIP3      3233            0.0000000000
     34598      3433  TIP3      H1             -7.6366402773      -34.5721224869       42.8151970324  TIP3      3233            0.0000000000
     34599      3433  TIP3      H2             -7.0208371575      -34.8701209020       44.1833206733  TIP3      3233            0.0000000000
     34600      3434  TIP3      OH2            -9.5543577503      -23.0077937956       41.7913397264  TIP3      3234            0.0000000000
     34601      3434  TIP3      H1            -10.4361240939      -22.6306569965       41.9956584470  TIP3      3234            0.0000000000
     34602      3434  TIP3      H2             -9.0257424912      -22.2012180638       41.6429071138  TIP3      3234            0.0000000000
     34603      3435  TIP3      OH2           -10.1715122883      -33.3640576673       43.8068793246  TIP3      3235            0.0000000000
     34604      3435  TIP3      H1             -9.4063637665      -32.8037938291       44.0280286916  TIP3      3235            0.0000000000
     34605      3435  TIP3      H2            -10.4711305749      -33.6725303761       44.6894460511  TIP3      3235            0.0000000000
     34606      3436  TIP3      OH2            -9.5344580376      -36.4036881944       44.8794502988  TIP3      3236            0.0000000000
     34607      3436  TIP3      H1             -9.7485970057      -35.5996781570       45.3905735901  TIP3      3236            0.0000000000
     34608      3436  TIP3      H2             -8.6911855911      -36.1090632935       44.4614643702  TIP3      3236            0.0000000000
     34609      3437  TIP3      OH2           -12.1849669303      -22.2814326254       41.8513835235  TIP3      3237            0.0000000000
     34610      3437  TIP3      H1            -12.0621820314      -21.4773698771       41.2943970995  TIP3      3237            0.0000000000
     34611      3437  TIP3      H2            -12.5755225921      -21.8676025694       42.6466050267  TIP3      3237            0.0000000000
     34612      3438  TIP3      OH2           -13.9982078004      -35.0645273746       41.5404620781  TIP3      3238            0.0000000000
     34613      3438  TIP3      H1            -14.1506556750      -34.2902739430       42.0975880590  TIP3      3238            0.0000000000
     34614      3438  TIP3      H2            -13.0885590927      -35.2866705835       41.8420696878  TIP3      3238            0.0000000000
     34615      3439  TIP3      OH2            -4.9198425291      -30.5759248639       47.5957177010  TIP3      3239            0.0000000000
     34616      3439  TIP3      H1             -5.6703385855      -31.2004804851       47.6710657459  TIP3      3239            0.0000000000
     34617      3439  TIP3      H2             -4.2683626954      -30.9960238632       48.2027994351  TIP3      3239            0.0000000000
     34618      3440  TIP3      OH2           -15.3863869058      -24.8793034501       40.3828817475  TIP3      3240            0.0000000000
     34619      3440  TIP3      H1            -14.6723235594      -24.5372299713       40.9541835215  TIP3      3240            0.0000000000
     34620      3440  TIP3      H2            -14.8564708016      -25.3494992180       39.7057197161  TIP3      3240            0.0000000000
     34621      3441  TIP3      OH2           -17.2112081757      -31.9517531471       40.0397331051  TIP3      3241            0.0000000000
     34622      3441  TIP3      H1            -16.7601689695      -31.1125108872       40.2238446438  TIP3      3241            0.0000000000
     34623      3441  TIP3      H2            -17.9052684228      -31.6763947201       39.4285255146  TIP3      3241            0.0000000000
     34624      3442  TIP3      OH2            -3.5821309287      -21.2538778578       49.6350532939  TIP3      3242            0.0000000000
     34625      3442  TIP3      H1             -3.4854940266      -20.4895441965       49.0334011391  TIP3      3242            0.0000000000
     34626      3442  TIP3      H2             -2.7569183028      -21.2570432672       50.1279725969  TIP3      3242            0.0000000000
     34627      3443  TIP3      OH2           -16.0927941441      -36.7772692503       48.0086582692  TIP3      3243            0.0000000000
     34628      3443  TIP3      H1            -16.0019847121      -36.7882046067       47.0292287299  TIP3      3243            0.0000000000
     34629      3443  TIP3      H2            -16.3634738526      -37.7133491449       48.1478231683  TIP3      3243            0.0000000000
     34630      3444  TIP3      OH2           -17.5048414480      -23.5550523347       44.5111514028  TIP3      3244            0.0000000000
     34631      3444  TIP3      H1            -18.2742036459      -22.9801986930       44.6487136396  TIP3      3244            0.0000000000
     34632      3444  TIP3      H2            -17.1590265338      -23.1620934084       43.6909270622  TIP3      3244            0.0000000000
     34633      3445  TIP3      OH2            -9.1190510347      -21.9728842601       38.8079932793  TIP3      3245            0.0000000000
     34634      3445  TIP3      H1             -9.6523111243      -22.7813703130       38.9535096225  TIP3      3245            0.0000000000
     34635      3445  TIP3      H2             -8.3175749022      -22.3515432341       38.3881420870  TIP3      3245            0.0000000000
     34636      3446  TIP3      OH2            -4.7595666620      -22.8094236590       38.9755817066  TIP3      3246            0.0000000000
     34637      3446  TIP3      H1             -4.5994812849      -23.4506295903       39.6942185299  TIP3      3246            0.0000000000
     34638      3446  TIP3      H2             -3.9021232747      -22.7701873613       38.5242080507  TIP3      3246            0.0000000000
     34639      3447  TIP3      OH2           -13.8271824546      -26.7148243347       38.8268892457  TIP3      3247            0.0000000000
     34640      3447  TIP3      H1            -13.5068867333      -26.9896634987       39.7070639214  TIP3      3247            0.0000000000
     34641      3447  TIP3      H2            -13.0100734388      -26.8466887346       38.2901654445  TIP3      3247            0.0000000000
     34642      3448  TIP3      OH2            -8.1983114483      -25.3800449498       38.6418992537  TIP3      3248            0.0000000000
     34643      3448  TIP3      H1             -8.5223646650      -25.5244010358       39.5503867371  TIP3      3248            0.0000000000
     34644      3448  TIP3      H2             -8.2498576540      -26.3075734942       38.3174513359  TIP3      3248            0.0000000000
     34645      3449  TIP3      OH2           -12.5380902875      -28.4458633951       41.4429741678  TIP3      3249            0.0000000000
     34646      3449  TIP3      H1            -13.2353129245      -28.9757883818       41.8608465838  TIP3      3249            0.0000000000
     34647      3449  TIP3      H2            -12.1453434784      -29.0912379062       40.8287863209  TIP3      3249            0.0000000000
     34648      3450  TIP3      OH2           -11.4171073195      -30.4083417451       39.4836523307  TIP3      3250            0.0000000000
     34649      3450  TIP3      H1            -11.3319714624      -30.2209067656       38.5323877346  TIP3      3250            0.0000000000
     34650      3450  TIP3      H2            -10.4832667204      -30.2918597121       39.7799503821  TIP3      3250            0.0000000000
     34651      3451  TIP3      OH2            -2.3805720954      -28.2926739355       38.8210842747  TIP3      3251            0.0000000000
     34652      3451  TIP3      H1             -2.5339336252      -28.5206783984       37.8824854566  TIP3      3251            0.0000000000
     34653      3451  TIP3      H2             -2.4094546600      -27.3052228298       38.7859377723  TIP3      3251            0.0000000000
     34654      3452  TIP3      OH2           -11.6298286034      -19.8529050266       40.8756847478  TIP3      3252            0.0000000000
     34655      3452  TIP3      H1            -10.6569036820      -19.8755522974       40.8814146221  TIP3      3252            0.0000000000
     34656      3452  TIP3      H2            -11.7900274237      -19.3508971933       40.0596683104  TIP3      3252            0.0000000000
     34657      3453  TIP3      OH2           -18.2127329544      -25.1341989868       40.2186285066  TIP3      3253            0.0000000000
     34658      3453  TIP3      H1            -17.2354026759      -25.1058957510       40.1304154423  TIP3      3253            0.0000000000
     34659      3453  TIP3      H2            -18.4950876013      -25.7100107404       39.4699763543  TIP3      3253            0.0000000000
     34660      3454  TIP3      OH2           -19.1913779313      -20.1046166318       44.7473094508  TIP3      3254            0.0000000000
     34661      3454  TIP3      H1            -20.0275912740      -20.5612708107       44.5145491641  TIP3      3254            0.0000000000
     34662      3454  TIP3      H2            -18.9921284811      -20.5704897733       45.5906858386  TIP3      3254            0.0000000000
     34663      3455  TIP3      OH2           -18.4997379882      -21.6508846124       46.7689738882  TIP3      3255            0.0000000000
     34664      3455  TIP3      H1            -18.7394114794      -22.5116562222       47.1790553884  TIP3      3255            0.0000000000
     34665      3455  TIP3      H2            -17.9878530722      -21.2374487259       47.5032002028  TIP3      3255            0.0000000000
     34666      3456  TIP3      OH2            -1.7193630413      -27.0906003238       42.6080135991  TIP3      3256            0.0000000000
     34667      3456  TIP3      H1             -0.8804286558      -26.6062690188       42.7510638799  TIP3      3256            0.0000000000
     34668      3456  TIP3      H2             -1.7382977378      -27.6776518327       43.4037982156  TIP3      3256            0.0000000000
     34669      3457  TIP3      OH2            -1.6157436809      -28.6507413092       44.8553976956  TIP3      3257            0.0000000000
     34670      3457  TIP3      H1             -2.2463329501      -29.2634886048       45.2953986209  TIP3      3257            0.0000000000
     34671      3457  TIP3      H2             -0.8369419549      -28.6917753266       45.4492307399  TIP3      3257            0.0000000000
     34672      3458  TIP3      OH2            -0.6838898670      -26.2094637714       49.6341052934  TIP3      3258            0.0000000000
     34673      3458  TIP3      H1             -0.2035763242      -26.7831333178       49.0172974831  TIP3      3258            0.0000000000
     34674      3458  TIP3      H2             -1.2806867928      -25.7005035545       49.0585538477  TIP3      3258            0.0000000000
     34675      3459  TIP3      OH2            -0.9200137852      -29.3467586144       41.0844369464  TIP3      3259            0.0000000000
     34676      3459  TIP3      H1             -1.6190730665      -29.3454425549       40.3967038435  TIP3      3259            0.0000000000
     34677      3459  TIP3      H2             -1.1683947589      -28.5297824444       41.5719787142  TIP3      3259            0.0000000000
     34678      3460  TIP3      OH2            -2.6695542167      -31.8227192956       39.6777269998  TIP3      3260            0.0000000000
     34679      3460  TIP3      H1             -2.4282211436      -31.3568805087       38.8649639002  TIP3      3260            0.0000000000
     34680      3460  TIP3      H2             -2.9237251386      -32.7119544956       39.3369704661  TIP3      3260            0.0000000000
     34681      3461  TIP3      OH2            -3.3064804622      -30.7681854412       45.5064197005  TIP3      3261            0.0000000000
     34682      3461  TIP3      H1             -3.7540046126      -31.5162509977       45.0685207866  TIP3      3261            0.0000000000
     34683      3461  TIP3      H2             -3.8074091606      -30.7357501236       46.3530006171  TIP3      3261            0.0000000000
     34684      3462  TIP3      OH2           -18.8742065016      -28.9029678638       48.8898259804  TIP3      3262            0.0000000000
     34685      3462  TIP3      H1            -18.4057167276      -29.0949214736       48.0601493082  TIP3      3262            0.0000000000
     34686      3462  TIP3      H2            -18.1424687405      -28.7041283356       49.5097520629  TIP3      3262            0.0000000000
     34687      3463  TIP3      OH2            -3.1234356750      -34.2654729185       38.8940180754  TIP3      3263            0.0000000000
     34688      3463  TIP3      H1             -2.5811828831      -34.9998731270       39.2034721020  TIP3      3263            0.0000000000
     34689      3463  TIP3      H2             -4.0276640083      -34.6773305511       38.9071682851  TIP3      3263            0.0000000000
     34690      3464  TIP3      OH2            -4.0396159646      -32.8268414921       43.8795759993  TIP3      3264            0.0000000000
     34691      3464  TIP3      H1             -3.7134129386      -33.7570779497       43.9138414950  TIP3      3264            0.0000000000
     34692      3464  TIP3      H2             -3.2174023026      -32.3840754618       43.5911289433  TIP3      3264            0.0000000000
     34693      3465  TIP3      OH2            -3.1520421651      -32.1570197140       48.9109214385  TIP3      3265            0.0000000000
     34694      3465  TIP3      H1             -2.1827067121      -32.2342910479       48.9100483875  TIP3      3265            0.0000000000
     34695      3465  TIP3      H2             -3.4181960743      -33.0038640540       49.3411131910  TIP3      3265            0.0000000000
     34696      3466  TIP3      OH2            -3.1751989822      -35.4558186702       44.1582020916  TIP3      3266            0.0000000000
     34697      3466  TIP3      H1             -2.9448923432      -35.9457998120       44.9696344345  TIP3      3266            0.0000000000
     34698      3466  TIP3      H2             -3.8167222193      -36.0469327349       43.7164069171  TIP3      3266            0.0000000000
     34699      3467  TIP3      OH2           -17.9231408529      -34.8160455478       49.0238098458  TIP3      3267            0.0000000000
     34700      3467  TIP3      H1            -17.3316643918      -35.6073429891       49.0493200704  TIP3      3267            0.0000000000
     34701      3467  TIP3      H2            -17.2711797843      -34.1197842498       49.1550469593  TIP3      3267            0.0000000000
     34702      3468  TIP3      OH2           -19.2749797850      -31.6130487398       49.0387410037  TIP3      3268            0.0000000000
     34703      3468  TIP3      H1            -18.5707889547      -31.7376165169       48.3895518125  TIP3      3268            0.0000000000
     34704      3468  TIP3      H2            -19.2020076845      -30.6549605723       49.2017512226  TIP3      3268            0.0000000000
     34705      3469  TIP3      OH2            -1.1916155499      -35.7513481670       40.4944362757  TIP3      3269            0.0000000000
     34706      3469  TIP3      H1             -0.8335538913      -36.4097534048       39.8462135828  TIP3      3269            0.0000000000
     34707      3469  TIP3      H2             -0.6280861922      -34.9811871620       40.3398357389  TIP3      3269            0.0000000000
     34708      3470  TIP3      OH2           -18.9370642803      -35.8600074363       43.9694061511  TIP3      3270            0.0000000000
     34709      3470  TIP3      H1            -19.8882320571      -35.9275034115       43.7676478127  TIP3      3270            0.0000000000
     34710      3470  TIP3      H2            -18.6125791849      -35.3838335918       43.1919396039  TIP3      3270            0.0000000000
     34711      3471  TIP3      OH2            -4.3546345857      -20.7023219485       45.6875017847  TIP3      3271            0.0000000000
     34712      3471  TIP3      H1             -3.6498476755      -20.8932645269       45.0390941131  TIP3      3271            0.0000000000
     34713      3471  TIP3      H2             -3.8974181733      -20.1357467324       46.3394499341  TIP3      3271            0.0000000000
     34714      3472  TIP3      OH2           -16.8828538412      -20.7065757589       48.8574869679  TIP3      3272            0.0000000000
     34715      3472  TIP3      H1            -16.6672554663      -20.6299580932       49.8166595459  TIP3      3272            0.0000000000
     34716      3472  TIP3      H2            -16.1007803402      -21.1952461903       48.5116972747  TIP3      3272            0.0000000000
     34717      3473  TIP3      OH2           -14.9339056493      -22.2032446830       47.7686697790  TIP3      3273            0.0000000000
     34718      3473  TIP3      H1            -15.0344451795      -23.1649282153       47.8826939445  TIP3      3273            0.0000000000
     34719      3473  TIP3      H2            -14.0710755433      -22.0510508284       48.2062018268  TIP3      3273            0.0000000000
     34720      3474  TIP3      OH2           -12.4751257299      -21.7665380429       48.7624354959  TIP3      3274            0.0000000000
     34721      3474  TIP3      H1            -12.2307966261      -22.7045278479       48.6291883050  TIP3      3274            0.0000000000
     34722      3474  TIP3      H2            -12.5154255220      -21.7286987170       49.7197178384  TIP3      3274            0.0000000000
     34723      3475  TIP3      OH2            -9.1831041363      -35.5563230335       48.1296965387  TIP3      3275            0.0000000000
     34724      3475  TIP3      H1             -9.6667285441      -36.4122838688       48.1904520791  TIP3      3275            0.0000000000
     34725      3475  TIP3      H2             -8.4624106208      -35.8251944199       47.5229339017  TIP3      3275            0.0000000000
     34726      3476  TIP3      OH2            -3.9264432301      -37.3188010247       48.2099772550  TIP3      3276            0.0000000000
     34727      3476  TIP3      H1             -3.3189992734      -37.1212278015       47.4655334665  TIP3      3276            0.0000000000
     34728      3476  TIP3      H2             -4.7677425925      -36.9397482030       47.9083712649  TIP3      3276            0.0000000000
     34729      3477  TIP3      OH2            -2.0322140193      -36.6783187371       46.2396598025  TIP3      3277            0.0000000000
     34730      3477  TIP3      H1             -1.5421490013      -37.3780929112       45.7736504817  TIP3      3277            0.0000000000
     34731      3477  TIP3      H2             -1.4408287832      -35.8923005490       46.1438437354  TIP3      3277            0.0000000000
     34732      3478  TIP3      OH2           -16.3337743217      -37.1990797124       45.4483511826  TIP3      3278            0.0000000000
     34733      3478  TIP3      H1            -17.0719873213      -37.0518991115       44.8326062190  TIP3      3278            0.0000000000
     34734      3478  TIP3      H2            -16.4175270857      -38.1669707104       45.6148261026  TIP3      3278            0.0000000000
     34735      3479  TIP3      OH2           -17.6039889140      -37.2638721473       41.7968373681  TIP3      3279            0.0000000000
     34736      3479  TIP3      H1            -17.4661132520      -36.9204058021       40.8874016422  TIP3      3279            0.0000000000
     34737      3479  TIP3      H2            -18.4981831977      -36.9598566348       41.9934311419  TIP3      3279            0.0000000000
     34738      3480  TIP3      OH2           -11.8712646435      -37.2316939283       45.6716943485  TIP3      3280            0.0000000000
     34739      3480  TIP3      H1            -11.0873971588      -36.9457212591       45.1643594963  TIP3      3280            0.0000000000
     34740      3480  TIP3      H2            -11.5251898727      -37.1860964862       46.5926118762  TIP3      3280            0.0000000000
     34741      3481  TIP3      OH2            -6.9149425927      -36.7248400721       46.8167891385  TIP3      3281            0.0000000000
     34742      3481  TIP3      H1             -6.3733655491      -36.9797760918       46.0642769347  TIP3      3281            0.0000000000
     34743      3481  TIP3      H2             -6.8592072445      -37.5307735225       47.3610904234  TIP3      3281            0.0000000000
     34744      3482  TIP3      OH2            -5.2504522731      -36.4701800142       42.5742137056  TIP3      3282            0.0000000000
     34745      3482  TIP3      H1             -6.1955908019      -36.2581306687       42.4557927115  TIP3      3282            0.0000000000
     34746      3482  TIP3      H2             -5.3108271894      -37.4041867086       42.8449325622  TIP3      3282            0.0000000000
     34747      3483  TIP3      OH2           -17.6880897852      -21.7864131264       42.4875293426  TIP3      3283            0.0000000000
     34748      3483  TIP3      H1            -18.5950453899      -21.8025943849       42.1281764325  TIP3      3283            0.0000000000
     34749      3483  TIP3      H2            -17.4469919145      -20.8696108058       42.2593536480  TIP3      3283            0.0000000000
     34750      3484  TIP3      OH2           -16.3812430861      -35.9373319065       39.8051015242  TIP3      3284            0.0000000000
     34751      3484  TIP3      H1            -15.7470261119      -36.4525753404       39.2703196312  TIP3      3284            0.0000000000
     34752      3484  TIP3      H2            -15.8083799749      -35.6858403850       40.5459895027  TIP3      3284            0.0000000000
     34753      3485  TIP3      OH2           -11.3170788889      -35.4498324270       42.5644438080  TIP3      3285            0.0000000000
     34754      3485  TIP3      H1            -10.7472763527      -36.0400589123       43.0902899553  TIP3      3285            0.0000000000
     34755      3485  TIP3      H2            -10.8723161431      -34.5875334626       42.7695631805  TIP3      3285            0.0000000000
     34756      3486  TIP3      OH2            -8.7201130691      -20.4111715463       40.8694006492  TIP3      3286            0.0000000000
     34757      3486  TIP3      H1             -7.7686409042      -20.4179338931       40.6381102685  TIP3      3286            0.0000000000
     34758      3486  TIP3      H2             -9.0236243745      -20.9269381621       40.0824370727  TIP3      3286            0.0000000000
     34759      3487  TIP3      OH2            -2.5260299458      -21.2727217844       43.7067384959  TIP3      3287            0.0000000000
     34760      3487  TIP3      H1             -2.7807828638      -22.0006500950       43.0891533757  TIP3      3287            0.0000000000
     34761      3487  TIP3      H2             -2.5395543753      -20.5060051384       43.0956308102  TIP3      3287            0.0000000000
     34762      3488  TIP3      OH2           -16.6824080004      -21.0003339511       39.3636213664  TIP3      3288            0.0000000000
     34763      3488  TIP3      H1            -16.9020181244      -20.5210626044       40.1782906976  TIP3      3288            0.0000000000
     34764      3488  TIP3      H2            -15.8630003291      -21.4659190593       39.6182865566  TIP3      3288            0.0000000000
     34765      3489  TIP3      OH2            11.2351894231      -28.3168685510       45.6423761767  TIP3      3289            0.0000000000
     34766      3489  TIP3      H1             11.2470244878      -27.3452494565       45.7203988922  TIP3      3289            0.0000000000
     34767      3489  TIP3      H2             10.5150722283      -28.4267598184       44.9995630809  TIP3      3289            0.0000000000
     34768      3490  TIP3      OH2            10.2421664759      -29.3536105689       48.9051799568  TIP3      3290            0.0000000000
     34769      3490  TIP3      H1             10.1918986091      -29.7582416862       49.7975258483  TIP3      3290            0.0000000000
     34770      3490  TIP3      H2              9.5758967668      -29.8308726259       48.3935331745  TIP3      3290            0.0000000000
     34771      3491  TIP3      OH2            13.2896688249      -26.3832633546       47.1467240831  TIP3      3291            0.0000000000
     34772      3491  TIP3      H1             13.0210514956      -27.1523040999       47.6889239268  TIP3      3291            0.0000000000
     34773      3491  TIP3      H2             13.7128042478      -25.8098437672       47.8308667784  TIP3      3291            0.0000000000
     34774      3492  TIP3      OH2             3.7099064729      -24.9244064421       48.9898556952  TIP3      3292            0.0000000000
     34775      3492  TIP3      H1              3.5061741858      -25.8371481756       48.6791509806  TIP3      3292            0.0000000000
     34776      3492  TIP3      H2              4.6726512306      -24.8882515583       48.8774023937  TIP3      3292            0.0000000000
     34777      3493  TIP3      OH2             0.3537922121      -31.7596828247       44.7192397891  TIP3      3293            0.0000000000
     34778      3493  TIP3      H1             -0.0441359109      -30.8880303805       44.8188812862  TIP3      3293            0.0000000000
     34779      3493  TIP3      H2             -0.4234314273      -32.2777838332       44.4638841008  TIP3      3293            0.0000000000
     34780      3494  TIP3      OH2             0.6970400573      -29.2886352045       46.2739057768  TIP3      3294            0.0000000000
     34781      3494  TIP3      H1              1.1116094136      -30.0341429964       46.7530389677  TIP3      3294            0.0000000000
     34782      3494  TIP3      H2              1.4185116857      -28.9118427119       45.7471851498  TIP3      3294            0.0000000000
     34783      3495  TIP3      OH2            11.0439421786      -20.8134562546       47.6434531301  TIP3      3295            0.0000000000
     34784      3495  TIP3      H1             11.6400693378      -21.4005203321       47.1277894999  TIP3      3295            0.0000000000
     34785      3495  TIP3      H2             10.6143576970      -21.4782472679       48.1910236516  TIP3      3295            0.0000000000
     34786      3496  TIP3      OH2             9.0666044715      -26.4957518826       50.0886283617  TIP3      3296            0.0000000000
     34787      3496  TIP3      H1              9.4020567604      -26.8826693971       49.2685670276  TIP3      3296            0.0000000000
     34788      3496  TIP3      H2              9.6803880712      -26.8798893223       50.7305862245  TIP3      3296            0.0000000000
     34789      3497  TIP3      OH2            11.8981566856      -32.5002581693       49.8901061635  TIP3      3297            0.0000000000
     34790      3497  TIP3      H1             12.1369622103      -33.4336177410       49.9759997277  TIP3      3297            0.0000000000
     34791      3497  TIP3      H2             11.7833263440      -32.4194245449       48.9212606205  TIP3      3297            0.0000000000
     34792      3498  TIP3      OH2             5.0561230672      -34.2900113792       46.8667831516  TIP3      3298            0.0000000000
     34793      3498  TIP3      H1              5.1564981832      -33.4878974060       46.3030160847  TIP3      3298            0.0000000000
     34794      3498  TIP3      H2              4.5857854256      -34.8706134741       46.2358594743  TIP3      3298            0.0000000000
     34795      3499  TIP3      OH2            12.4960990929      -33.9399159692       45.3314568466  TIP3      3299            0.0000000000
     34796      3499  TIP3      H1             13.0642225963      -34.4182553853       45.9807079221  TIP3      3299            0.0000000000
     34797      3499  TIP3      H2             13.1288232732      -33.2837133245       45.0094744502  TIP3      3299            0.0000000000
     34798      3500  TIP3      OH2             1.2986580038      -31.6553614815       47.7203714233  TIP3      3300            0.0000000000
     34799      3500  TIP3      H1              1.9798983165      -32.1359147943       48.2124610323  TIP3      3300            0.0000000000
     34800      3500  TIP3      H2              1.4473765032      -32.0122596286       46.8173276738  TIP3      3300            0.0000000000
     34801      3501  TIP3      OH2             6.5071165965      -30.2466442552       47.1802044908  TIP3      3301            0.0000000000
     34802      3501  TIP3      H1              7.1884902091      -30.8303464651       47.5455475105  TIP3      3301            0.0000000000
     34803      3501  TIP3      H2              6.0938068353      -30.8522312091       46.5260829862  TIP3      3301            0.0000000000
     34804      3502  TIP3      OH2            10.6623394334      -25.8795595574       44.3420396663  TIP3      3302            0.0000000000
     34805      3502  TIP3      H1             10.4351427200      -25.8809494046       43.3867683842  TIP3      3302            0.0000000000
     34806      3502  TIP3      H2             10.4664678560      -24.9384931537       44.5456265313  TIP3      3302            0.0000000000
     34807      3503  TIP3      OH2            14.0501835074      -34.6756684002       47.3217840018  TIP3      3303            0.0000000000
     34808      3503  TIP3      H1             13.7446809561      -34.8375160368       48.2280721645  TIP3      3303            0.0000000000
     34809      3503  TIP3      H2             15.0063988297      -34.6190872040       47.4529790760  TIP3      3303            0.0000000000
     34810      3504  TIP3      OH2             3.5566874866      -33.3339840176       48.9254208538  TIP3      3304            0.0000000000
     34811      3504  TIP3      H1              3.7651075711      -32.4254861316       48.6530262852  TIP3      3304            0.0000000000
     34812      3504  TIP3      H2              3.9055296841      -33.8369246561       48.1546600807  TIP3      3304            0.0000000000
     34813      3505  TIP3      OH2             0.8859926518      -26.1226445585       42.7641607605  TIP3      3305            0.0000000000
     34814      3505  TIP3      H1              0.8070559639      -25.5502783024       41.9752033189  TIP3      3305            0.0000000000
     34815      3505  TIP3      H2              0.9996221256      -25.4596849376       43.4735586938  TIP3      3305            0.0000000000
     34816      3506  TIP3      OH2            14.5524138986      -24.8571011919       48.9324127419  TIP3      3306            0.0000000000
     34817      3506  TIP3      H1             14.1506744868      -25.2371097502       49.7484238194  TIP3      3306            0.0000000000
     34818      3506  TIP3      H2             14.8362584843      -23.9948915388       49.2446619005  TIP3      3306            0.0000000000
     34819      3507  TIP3      OH2             7.7330107517      -37.4739461616       48.2560884723  TIP3      3307            0.0000000000
     34820      3507  TIP3      H1              7.8100108563      -38.4481674907       48.3538290735  TIP3      3307            0.0000000000
     34821      3507  TIP3      H2              6.9772974504      -37.2973423403       48.8498724631  TIP3      3307            0.0000000000
     34822      3508  TIP3      OH2            12.4375154231      -22.4772997680       46.1970230776  TIP3      3308            0.0000000000
     34823      3508  TIP3      H1             12.9263250256      -23.2774322789       45.9014853674  TIP3      3308            0.0000000000
     34824      3508  TIP3      H2             13.1130224125      -21.7865124401       46.0081382142  TIP3      3308            0.0000000000
     34825      3509  TIP3      OH2            14.0128605794      -24.5059861690       45.1368519283  TIP3      3309            0.0000000000
     34826      3509  TIP3      H1             13.8749253845      -25.1731346533       44.4450943762  TIP3      3309            0.0000000000
     34827      3509  TIP3      H2             13.9244671060      -25.0742511893       45.9277927370  TIP3      3309            0.0000000000
     34828      3510  TIP3      OH2             9.8867403375      -29.1493740244       43.0628621834  TIP3      3310            0.0000000000
     34829      3510  TIP3      H1              9.4513844966      -28.3118555265       42.8023915315  TIP3      3310            0.0000000000
     34830      3510  TIP3      H2             10.7660261607      -29.0708224869       42.6509144043  TIP3      3310            0.0000000000
     34831      3511  TIP3      OH2            10.1532547341      -30.1971551912       40.0764280946  TIP3      3311            0.0000000000
     34832      3511  TIP3      H1             10.7592389722      -29.7907983238       40.7308489146  TIP3      3311            0.0000000000
     34833      3511  TIP3      H2             10.3664186488      -31.1347024710       40.1379591345  TIP3      3311            0.0000000000
     34834      3512  TIP3      OH2            13.7743987561      -29.0596894431       44.0974680279  TIP3      3312            0.0000000000
     34835      3512  TIP3      H1             13.0088517281      -28.8238038305       44.6600648027  TIP3      3312            0.0000000000
     34836      3512  TIP3      H2             14.4009370679      -29.3904442542       44.7634002658  TIP3      3312            0.0000000000
     34837      3513  TIP3      OH2             5.1228617858      -28.3520976977       45.8145084224  TIP3      3313            0.0000000000
     34838      3513  TIP3      H1              4.7589138218      -28.8311824982       45.0372319551  TIP3      3313            0.0000000000
     34839      3513  TIP3      H2              5.6524364854      -29.0354091007       46.2693936827  TIP3      3313            0.0000000000
     34840      3514  TIP3      OH2             6.5128660194      -24.6405001024       48.5799297307  TIP3      3314            0.0000000000
     34841      3514  TIP3      H1              6.3241360660      -24.8657089767       47.6412586014  TIP3      3314            0.0000000000
     34842      3514  TIP3      H2              7.1021876160      -25.3542552680       48.8511762909  TIP3      3314            0.0000000000
     34843      3515  TIP3      OH2             4.8219257428      -29.9454313579       49.3371026887  TIP3      3315            0.0000000000
     34844      3515  TIP3      H1              5.4444392954      -29.8715219551       48.5906134037  TIP3      3315            0.0000000000
     34845      3515  TIP3      H2              5.2709010017      -29.4469755633       50.0416481221  TIP3      3315            0.0000000000
     34846      3516  TIP3      OH2            12.3421635679      -29.5326465058       41.7556707738  TIP3      3316            0.0000000000
     34847      3516  TIP3      H1             12.9518535871      -29.2899215788       42.4930730874  TIP3      3316            0.0000000000
     34848      3516  TIP3      H2             12.8332593889      -29.1282633645       40.9909166324  TIP3      3316            0.0000000000
     34849      3517  TIP3      OH2            10.1302439727      -23.3528890880       44.6716273032  TIP3      3317            0.0000000000
     34850      3517  TIP3      H1             10.8009063328      -23.0230353863       45.2902427711  TIP3      3317            0.0000000000
     34851      3517  TIP3      H2              9.6302223111      -22.5526433364       44.4494791393  TIP3      3317            0.0000000000
     34852      3518  TIP3      OH2            16.1277420005      -37.3768076018       41.9995116719  TIP3      3318            0.0000000000
     34853      3518  TIP3      H1             15.2262192726      -37.0005250970       42.0407165759  TIP3      3318            0.0000000000
     34854      3518  TIP3      H2             16.5889849803      -36.6433278921       41.5346453348  TIP3      3318            0.0000000000
     34855      3519  TIP3      OH2             3.7337496080      -29.3152924241       43.6342185563  TIP3      3319            0.0000000000
     34856      3519  TIP3      H1              3.6418277533      -28.4447691951       43.1872577369  TIP3      3319            0.0000000000
     34857      3519  TIP3      H2              3.4708029239      -29.9143178041       42.9184405398  TIP3      3319            0.0000000000
     34858      3520  TIP3      OH2            17.2613772347      -23.8554452488       40.2270664157  TIP3      3320            0.0000000000
     34859      3520  TIP3      H1             17.4959264485      -22.9044208582       40.3105778130  TIP3      3320            0.0000000000
     34860      3520  TIP3      H2             18.1606304804      -24.2435767964       40.2758869182  TIP3      3320            0.0000000000
     34861      3521  TIP3      OH2            -0.0058637009      -23.6885714308       48.5415942869  TIP3      3321            0.0000000000
     34862      3521  TIP3      H1              0.7587779252      -24.1026994192       48.9668177069  TIP3      3321            0.0000000000
     34863      3521  TIP3      H2             -0.4964861308      -23.3095805028       49.2892994659  TIP3      3321            0.0000000000
     34864      3522  TIP3      OH2             9.7571559772      -20.3814709890       43.6995439007  TIP3      3322            0.0000000000
     34865      3522  TIP3      H1              9.7455171604      -20.1946397238       42.7417849929  TIP3      3322            0.0000000000
     34866      3522  TIP3      H2              9.6216466191      -19.4711279300       44.0498904464  TIP3      3322            0.0000000000
     34867      3523  TIP3      OH2             3.1934068845      -21.4130440961       45.2679991300  TIP3      3323            0.0000000000
     34868      3523  TIP3      H1              3.3991395465      -21.6535611330       46.1964200319  TIP3      3323            0.0000000000
     34869      3523  TIP3      H2              2.3090676178      -21.8055623992       45.1489111372  TIP3      3323            0.0000000000
     34870      3524  TIP3      OH2            12.8098279777      -20.9293550283       40.4487494553  TIP3      3324            0.0000000000
     34871      3524  TIP3      H1             13.2447495977      -21.7257684541       40.0639939267  TIP3      3324            0.0000000000
     34872      3524  TIP3      H2             12.8372650675      -21.1429106218       41.4041188960  TIP3      3324            0.0000000000
     34873      3525  TIP3      OH2            12.3436357568      -21.0566798521       43.2605901715  TIP3      3325            0.0000000000
     34874      3525  TIP3      H1             11.3979782828      -20.8133312282       43.3967180392  TIP3      3325            0.0000000000
     34875      3525  TIP3      H2             12.4475943674      -21.7801134614       43.9003434209  TIP3      3325            0.0000000000
     34876      3526  TIP3      OH2             5.2818141431      -36.6640702731       49.4570983425  TIP3      3326            0.0000000000
     34877      3526  TIP3      H1              4.4636961543      -36.5305381571       48.9321051789  TIP3      3326            0.0000000000
     34878      3526  TIP3      H2              5.5696775964      -35.7361148013       49.5810885828  TIP3      3326            0.0000000000
     34879      3527  TIP3      OH2            13.8293160716      -28.3047099013       39.8501636029  TIP3      3327            0.0000000000
     34880      3527  TIP3      H1             13.6080627581      -28.1307931886       38.9164501807  TIP3      3327            0.0000000000
     34881      3527  TIP3      H2             14.7911836814      -28.1850549712       39.8181509401  TIP3      3327            0.0000000000
     34882      3528  TIP3      OH2             9.1860292929      -34.8239814694       40.3503775904  TIP3      3328            0.0000000000
     34883      3528  TIP3      H1              8.9950485592      -35.3765033457       41.1246650521  TIP3      3328            0.0000000000
     34884      3528  TIP3      H2              8.7686091779      -35.3351028728       39.6387632548  TIP3      3328            0.0000000000
     34885      3529  TIP3      OH2             5.1976093103      -31.9939562953       45.6313511969  TIP3      3329            0.0000000000
     34886      3529  TIP3      H1              4.2356840008      -32.1672785249       45.5142023324  TIP3      3329            0.0000000000
     34887      3529  TIP3      H2              5.5369390486      -32.1622994485       44.7197960163  TIP3      3329            0.0000000000
     34888      3530  TIP3      OH2            10.9123981800      -31.3948256761       44.0934472153  TIP3      3330            0.0000000000
     34889      3530  TIP3      H1             10.4292429657      -30.6508643845       43.6682320254  TIP3      3330            0.0000000000
     34890      3530  TIP3      H2             11.4835258702      -31.6847601422       43.3590499593  TIP3      3330            0.0000000000
     34891      3531  TIP3      OH2            11.7251063172      -32.0671843632       47.1590943330  TIP3      3331            0.0000000000
     34892      3531  TIP3      H1             11.5938227939      -31.3681293947       46.4871489361  TIP3      3331            0.0000000000
     34893      3531  TIP3      H2             11.8395660389      -32.8335606079       46.5576763117  TIP3      3331            0.0000000000
     34894      3532  TIP3      OH2             5.9052753011      -34.5007566424       38.9267683060  TIP3      3332            0.0000000000
     34895      3532  TIP3      H1              5.5815595463      -34.8372938177       39.7987509882  TIP3      3332            0.0000000000
     34896      3532  TIP3      H2              5.1803793283      -33.8909753720       38.6994135928  TIP3      3332            0.0000000000
     34897      3533  TIP3      OH2            -0.4313177349      -34.3187975728       46.2784460865  TIP3      3333            0.0000000000
     34898      3533  TIP3      H1              0.1149329111      -34.4774974132       47.0629482479  TIP3      3333            0.0000000000
     34899      3533  TIP3      H2              0.1373288454      -34.6618261501       45.5668222991  TIP3      3333            0.0000000000
     34900      3534  TIP3      OH2             0.6995115121      -33.9694507298       41.8521948154  TIP3      3334            0.0000000000
     34901      3534  TIP3      H1              1.2828666524      -33.6376729252       41.1473856425  TIP3      3334            0.0000000000
     34902      3534  TIP3      H2              0.1363036156      -33.1916872610       42.0169884896  TIP3      3334            0.0000000000
     34903      3535  TIP3      OH2             8.0231181309      -34.4372309321       46.4321480726  TIP3      3335            0.0000000000
     34904      3535  TIP3      H1              7.1095496222      -34.6288572936       46.7060856066  TIP3      3335            0.0000000000
     34905      3535  TIP3      H2              8.4886337746      -34.7213177948       47.2490942946  TIP3      3335            0.0000000000
     34906      3536  TIP3      OH2             2.6304035432      -32.9179273147       45.5800114648  TIP3      3336            0.0000000000
     34907      3536  TIP3      H1              1.8644198845      -32.4609734180       45.1604750903  TIP3      3336            0.0000000000
     34908      3536  TIP3      H2              2.8281492825      -33.6313272800       44.9340809020  TIP3      3336            0.0000000000
     34909      3537  TIP3      OH2             6.0965354693      -32.4147395717       43.1718074077  TIP3      3337            0.0000000000
     34910      3537  TIP3      H1              7.0001752452      -32.5405852186       42.8329402003  TIP3      3337            0.0000000000
     34911      3537  TIP3      H2              5.6329230310      -31.9821312391       42.4305083250  TIP3      3337            0.0000000000
     34912      3538  TIP3      OH2            12.0490097560      -35.5359124621       49.6726992873  TIP3      3338            0.0000000000
     34913      3538  TIP3      H1             11.9226788186      -35.6053071653       50.6389645704  TIP3      3338            0.0000000000
     34914      3538  TIP3      H2             11.1190021569      -35.5608751957       49.3662630825  TIP3      3338            0.0000000000
     34915      3539  TIP3      OH2             4.8926283263      -31.3933275147       40.5207915573  TIP3      3339            0.0000000000
     34916      3539  TIP3      H1              4.4301879239      -32.0658820852       39.9990816404  TIP3      3339            0.0000000000
     34917      3539  TIP3      H2              5.6960164479      -31.2639068363       39.9856709434  TIP3      3339            0.0000000000
     34918      3540  TIP3      OH2             8.9028248240      -31.9057577948       48.5927945251  TIP3      3340            0.0000000000
     34919      3540  TIP3      H1              9.5738796595      -31.9891676650       47.8890226896  TIP3      3340            0.0000000000
     34920      3540  TIP3      H2              9.1518382319      -32.6624941459       49.1455501480  TIP3      3340            0.0000000000
     34921      3541  TIP3      OH2             3.7845179199      -35.2336161293       44.4860358920  TIP3      3341            0.0000000000
     34922      3541  TIP3      H1              3.3362583256      -36.0159422161       44.8860366260  TIP3      3341            0.0000000000
     34923      3541  TIP3      H2              4.5491180646      -35.6795461549       44.1057658348  TIP3      3341            0.0000000000
     34924      3542  TIP3      OH2             8.2922603999      -26.9054641599       42.6055035668  TIP3      3342            0.0000000000
     34925      3542  TIP3      H1              7.5728655434      -27.4713028723       42.2361633445  TIP3      3342            0.0000000000
     34926      3542  TIP3      H2              7.8809757237      -26.6415035196       43.4671943728  TIP3      3342            0.0000000000
     34927      3543  TIP3      OH2            11.7142522913      -34.2896639781       40.6582041481  TIP3      3343            0.0000000000
     34928      3543  TIP3      H1             10.7268875671      -34.2680134289       40.6200371767  TIP3      3343            0.0000000000
     34929      3543  TIP3      H2             11.9499734195      -33.3983560253       40.9930726131  TIP3      3343            0.0000000000
     34930      3544  TIP3      OH2            12.6353145090      -32.2444002316       42.0269928722  TIP3      3344            0.0000000000
     34931      3544  TIP3      H1             13.4352456419      -32.3910309776       42.5739122738  TIP3      3344            0.0000000000
     34932      3544  TIP3      H2             12.8036122290      -31.3547524117       41.6786326254  TIP3      3344            0.0000000000
     34933      3545  TIP3      OH2             3.0303139882      -27.4584772810       48.0340870800  TIP3      3345            0.0000000000
     34934      3545  TIP3      H1              3.1780483021      -27.7412816867       47.1179273828  TIP3      3345            0.0000000000
     34935      3545  TIP3      H2              3.7806248464      -27.8545602784       48.5070592276  TIP3      3345            0.0000000000
     34936      3546  TIP3      OH2            10.2296869400      -25.5303969947       41.4857812011  TIP3      3346            0.0000000000
     34937      3546  TIP3      H1              9.8587711809      -24.6415848537       41.7022349688  TIP3      3346            0.0000000000
     34938      3546  TIP3      H2              9.5307327079      -26.1278846086       41.8282957231  TIP3      3346            0.0000000000
     34939      3547  TIP3      OH2            17.4393661307      -31.9353519439       42.0702403595  TIP3      3347            0.0000000000
     34940      3547  TIP3      H1             17.0007714169      -32.2805437677       41.2667995804  TIP3      3347            0.0000000000
     34941      3547  TIP3      H2             17.5849760539      -30.9963701904       41.7924613023  TIP3      3347            0.0000000000
     34942      3548  TIP3      OH2            15.4543196219      -23.2694250760       42.3004478200  TIP3      3348            0.0000000000
     34943      3548  TIP3      H1             15.2420777963      -23.9186936027       42.9835837864  TIP3      3348            0.0000000000
     34944      3548  TIP3      H2             16.0004857393      -23.7778805611       41.6678041621  TIP3      3348            0.0000000000
     34945      3549  TIP3      OH2            12.8614043116      -28.5664404864       49.0067670182  TIP3      3349            0.0000000000
     34946      3549  TIP3      H1             11.9287766615      -28.8541707253       48.8465609283  TIP3      3349            0.0000000000
     34947      3549  TIP3      H2             13.3874896866      -29.1944039638       48.4701579662  TIP3      3349            0.0000000000
     34948      3550  TIP3      OH2             5.5624664916      -24.0894577606       45.9161497191  TIP3      3350            0.0000000000
     34949      3550  TIP3      H1              6.0047104060      -23.2192266456       45.8689386895  TIP3      3350            0.0000000000
     34950      3550  TIP3      H2              4.7899098499      -23.9333038571       45.3597780145  TIP3      3350            0.0000000000
     34951      3551  TIP3      OH2             1.7794976901      -29.0317343573       40.4269587407  TIP3      3351            0.0000000000
     34952      3551  TIP3      H1              2.1976878093      -28.4278211619       41.0840151513  TIP3      3351            0.0000000000
     34953      3551  TIP3      H2              0.8206879733      -29.0203076772       40.6459523804  TIP3      3351            0.0000000000
     34954      3552  TIP3      OH2             6.9300979963      -26.4114516000       44.8571603251  TIP3      3352            0.0000000000
     34955      3552  TIP3      H1              6.4913695126      -25.6328172108       45.2403545599  TIP3      3352            0.0000000000
     34956      3552  TIP3      H2              6.4346303537      -27.1408176650       45.2772405357  TIP3      3352            0.0000000000
     34957      3553  TIP3      OH2             5.8077847211      -21.6114909008       44.4575944187  TIP3      3353            0.0000000000
     34958      3553  TIP3      H1              4.8569158132      -21.5377092661       44.6706269420  TIP3      3353            0.0000000000
     34959      3553  TIP3      H2              6.1429548610      -20.8098854799       44.9179848760  TIP3      3353            0.0000000000
     34960      3554  TIP3      OH2            13.6044385921      -25.3143253317       40.3284486948  TIP3      3354            0.0000000000
     34961      3554  TIP3      H1             13.6306768573      -25.7301607192       41.2226430153  TIP3      3354            0.0000000000
     34962      3554  TIP3      H2             12.7175049858      -25.6048282247       40.0443626916  TIP3      3354            0.0000000000
     34963      3555  TIP3      OH2            17.8280873794      -21.0836269380       40.7334201835  TIP3      3355            0.0000000000
     34964      3555  TIP3      H1             18.3976576654      -20.4781782266       40.2418629453  TIP3      3355            0.0000000000
     34965      3555  TIP3      H2             17.1367995179      -20.4662660904       41.0692578061  TIP3      3355            0.0000000000
     34966      3556  TIP3      OH2            14.3091692800      -26.6806447529       42.6135398769  TIP3      3356            0.0000000000
     34967      3556  TIP3      H1             14.0986897675      -27.5195963647       43.0707929752  TIP3      3356            0.0000000000
     34968      3556  TIP3      H2             15.2724093876      -26.7524687126       42.4593142638  TIP3      3356            0.0000000000
     34969      3557  TIP3      OH2             7.5756037503      -23.9609438790       38.8618186129  TIP3      3357            0.0000000000
     34970      3557  TIP3      H1              7.4237930739      -24.5213028184       38.0880100932  TIP3      3357            0.0000000000
     34971      3557  TIP3      H2              7.0087332022      -24.4112037024       39.5234026427  TIP3      3357            0.0000000000
     34972      3558  TIP3      OH2             6.3152843585      -24.7273362015       41.2371484714  TIP3      3358            0.0000000000
     34973      3558  TIP3      H1              7.0702345466      -25.1377309276       41.6909386958  TIP3      3358            0.0000000000
     34974      3558  TIP3      H2              6.4491020333      -23.7949752224       41.5410104007  TIP3      3358            0.0000000000
     34975      3559  TIP3      OH2             3.1989942586      -27.3082575870       41.8986693262  TIP3      3359            0.0000000000
     34976      3559  TIP3      H1              2.3541341610      -26.9082406118       42.1985799590  TIP3      3359            0.0000000000
     34977      3559  TIP3      H2              3.5893142458      -26.5769446115       41.3849441251  TIP3      3359            0.0000000000
     34978      3560  TIP3      OH2            11.2972679015      -35.3242557609       43.4836147426  TIP3      3360            0.0000000000
     34979      3560  TIP3      H1             11.1643868612      -34.5890296889       42.8692727235  TIP3      3360            0.0000000000
     34980      3560  TIP3      H2             11.8044079410      -34.8906542926       44.2139680367  TIP3      3360            0.0000000000
     34981      3561  TIP3      OH2             9.2329772756      -23.0451263713       41.8320360484  TIP3      3361            0.0000000000
     34982      3561  TIP3      H1              8.3894898607      -22.5986944240       42.0383412691  TIP3      3361            0.0000000000
     34983      3561  TIP3      H2              9.8012347971      -22.2701775907       41.6829050063  TIP3      3361            0.0000000000
     34984      3562  TIP3      OH2             8.6891452172      -33.4093286465       43.9701873292  TIP3      3362            0.0000000000
     34985      3562  TIP3      H1              9.4997304451      -32.9147576355       44.1908493645  TIP3      3362            0.0000000000
     34986      3562  TIP3      H2              8.2908841565      -33.5898775841       44.8509176188  TIP3      3362            0.0000000000
     34987      3563  TIP3      OH2             9.2313061231      -36.3476446029       44.7626191453  TIP3      3363            0.0000000000
     34988      3563  TIP3      H1              9.1338678478      -35.5294301485       45.2830532878  TIP3      3363            0.0000000000
     34989      3563  TIP3      H2             10.0732198422      -36.1379289009       44.2950888822  TIP3      3363            0.0000000000
     34990      3564  TIP3      OH2             6.5991363144      -22.2296176763       41.8675900670  TIP3      3364            0.0000000000
     34991      3564  TIP3      H1              6.6471802380      -21.4426428993       41.2692817268  TIP3      3364            0.0000000000
     34992      3564  TIP3      H2              6.1223457670      -21.8186102653       42.6203356466  TIP3      3364            0.0000000000
     34993      3565  TIP3      OH2             5.0769413466      -34.8986759009       41.4740716316  TIP3      3365            0.0000000000
     34994      3565  TIP3      H1              4.8153260476      -34.2369041239       42.1325906299  TIP3      3365            0.0000000000
     34995      3565  TIP3      H2              6.0010038725      -35.0621732965       41.7863022957  TIP3      3365            0.0000000000
     34996      3566  TIP3      OH2            13.9980721547      -30.5757282345       47.5549703046  TIP3      3366            0.0000000000
     34997      3566  TIP3      H1             13.2805108788      -31.2140379213       47.7548000353  TIP3      3366            0.0000000000
     34998      3566  TIP3      H2             14.6927575872      -30.9013931978       48.1741419104  TIP3      3366            0.0000000000
     34999      3567  TIP3      OH2             3.4015907831      -24.8156912658       40.3454057589  TIP3      3367            0.0000000000
     35000      3567  TIP3      H1              4.1205540356      -24.4028276420       40.8587635938  TIP3      3367            0.0000000000
     35001      3567  TIP3      H2              3.9139324213      -25.2719710503       39.6534311086  TIP3      3367            0.0000000000
     35002      3568  TIP3      OH2             1.7406431057      -31.9522258095       39.7766917602  TIP3      3368            0.0000000000
     35003      3568  TIP3      H1              2.1133503654      -31.0831629570       40.0076668213  TIP3      3368            0.0000000000
     35004      3568  TIP3      H2              1.0429301974      -31.6582094410       39.1733533491  TIP3      3368            0.0000000000
     35005      3569  TIP3      OH2            15.2094741440      -21.1682789908       49.6599330607  TIP3      3369            0.0000000000
     35006      3569  TIP3      H1             15.3260364344      -20.4099368521       49.0501694506  TIP3      3369            0.0000000000
     35007      3569  TIP3      H2             16.0716435247      -21.2115442818       50.0849301358  TIP3      3369            0.0000000000
     35008      3570  TIP3      OH2             2.9551265997      -36.8022457268       47.9791316849  TIP3      3370            0.0000000000
     35009      3570  TIP3      H1              2.9295709918      -36.8014407446       46.9974663831  TIP3      3370            0.0000000000
     35010      3570  TIP3      H2              2.6053394534      -37.7185254087       48.1084580730  TIP3      3370            0.0000000000
     35011      3571  TIP3      OH2             1.3594946546      -23.6391981387       44.4173606548  TIP3      3371            0.0000000000
     35012      3571  TIP3      H1              0.6076288038      -23.0661828411       44.6379668373  TIP3      3371            0.0000000000
     35013      3571  TIP3      H2              1.7030012007      -23.1471535319       43.6536907244  TIP3      3371            0.0000000000
     35014      3572  TIP3      OH2             9.7020199453      -21.8985151508       38.8507935192  TIP3      3372            0.0000000000
     35015      3572  TIP3      H1              9.2016359738      -22.7308840098       39.0014690062  TIP3      3372            0.0000000000
     35016      3572  TIP3      H2             10.4669929211      -22.2697787605       38.3571660570  TIP3      3372            0.0000000000
     35017      3573  TIP3      OH2            14.1589078632      -22.8694390152       38.9492179318  TIP3      3373            0.0000000000
     35018      3573  TIP3      H1             14.3283490871      -23.4955027511       39.6778397280  TIP3      3373            0.0000000000
     35019      3573  TIP3      H2             15.0409461585      -22.7420888673       38.5783084570  TIP3      3373            0.0000000000
     35020      3574  TIP3      OH2             5.0656711076      -26.7927014065       38.7194304392  TIP3      3374            0.0000000000
     35021      3574  TIP3      H1              5.5129923673      -26.9672168122       39.5608320736  TIP3      3374            0.0000000000
     35022      3574  TIP3      H2              5.8078652123      -26.9987273652       38.0981648484  TIP3      3374            0.0000000000
     35023      3575  TIP3      OH2            10.6695471780      -25.4085116755       38.6253660845  TIP3      3375            0.0000000000
     35024      3575  TIP3      H1             10.3138935804      -25.4936099085       39.5338832997  TIP3      3375            0.0000000000
     35025      3575  TIP3      H2             10.5573017187      -26.3476500563       38.3360104212  TIP3      3375            0.0000000000
     35026      3576  TIP3      OH2             6.3693982079      -28.5251701051       41.4094425332  TIP3      3376            0.0000000000
     35027      3576  TIP3      H1              5.6711720866      -29.0694250889       41.8010460503  TIP3      3376            0.0000000000
     35028      3576  TIP3      H2              6.7572597943      -29.1492455887       40.7624516199  TIP3      3376            0.0000000000
     35029      3577  TIP3      OH2             7.5573372658      -30.3006717107       39.4181095665  TIP3      3377            0.0000000000
     35030      3577  TIP3      H1              7.5079879708      -30.0166344320       38.4854840892  TIP3      3377            0.0000000000
     35031      3577  TIP3      H2              8.5315620416      -30.2271038672       39.5759480392  TIP3      3377            0.0000000000
     35032      3578  TIP3      OH2            16.6265015045      -28.3299941162       38.8921761662  TIP3      3378            0.0000000000
     35033      3578  TIP3      H1             16.4116771652      -28.5306423676       37.9583388406  TIP3      3378            0.0000000000
     35034      3578  TIP3      H2             16.6418154496      -27.3441810451       38.8779242241  TIP3      3378            0.0000000000
     35035      3579  TIP3      OH2             7.0999014977      -19.8657585296       40.8863146073  TIP3      3379            0.0000000000
     35036      3579  TIP3      H1              8.0226331605      -19.8805716575       41.1877312121  TIP3      3379            0.0000000000
     35037      3579  TIP3      H2              7.1887376807      -19.3025833234       40.0938702021  TIP3      3379            0.0000000000
     35038      3580  TIP3      OH2             0.6263775296      -25.1320713207       40.2072954342  TIP3      3380            0.0000000000
     35039      3580  TIP3      H1              1.6043806193      -25.0175050671       40.1635872347  TIP3      3380            0.0000000000
     35040      3580  TIP3      H2              0.4592636821      -25.6834014583       39.4025215495  TIP3      3380            0.0000000000
     35041      3581  TIP3      OH2            -0.3460083171      -20.1435110680       44.7206259604  TIP3      3381            0.0000000000
     35042      3581  TIP3      H1             -1.2153047722      -20.5497314830       44.5113677498  TIP3      3381            0.0000000000
     35043      3581  TIP3      H2             -0.1443877757      -20.6463292392       45.5377743968  TIP3      3381            0.0000000000
     35044      3582  TIP3      OH2             0.2852298770      -21.7144047755       46.7673087782  TIP3      3382            0.0000000000
     35045      3582  TIP3      H1              0.0409176330      -22.5470778129       47.2428800515  TIP3      3382            0.0000000000
     35046      3582  TIP3      H2              0.8290815756      -21.2910871098       47.4694129705  TIP3      3382            0.0000000000
     35047      3583  TIP3      OH2            17.1171185802      -27.0666739652       42.5602207202  TIP3      3383            0.0000000000
     35048      3583  TIP3      H1             17.9608796467      -26.5894856346       42.7106480922  TIP3      3383            0.0000000000
     35049      3583  TIP3      H2             17.0955565968      -27.6717827307       43.3413166400  TIP3      3383            0.0000000000
     35050      3584  TIP3      OH2            17.1624932063      -28.6263963336       44.8116309805  TIP3      3384            0.0000000000
     35051      3584  TIP3      H1             16.5452375605      -29.2746047433       45.2100336593  TIP3      3384            0.0000000000
     35052      3584  TIP3      H2             17.9379261957      -28.7221628112       45.3985516278  TIP3      3384            0.0000000000
     35053      3585  TIP3      OH2            18.0441849202      -26.2440545358       49.5347426790  TIP3      3385            0.0000000000
     35054      3585  TIP3      H1             18.6552698961      -26.6491015581       48.9043087131  TIP3      3385            0.0000000000
     35055      3585  TIP3      H2             17.4969206086      -25.6626284639       48.9842504580  TIP3      3385            0.0000000000
     35056      3586  TIP3      OH2            17.9580877464      -29.4018056013       41.0590046200  TIP3      3386            0.0000000000
     35057      3586  TIP3      H1             17.3243226464      -29.3551089661       40.3065384973  TIP3      3386            0.0000000000
     35058      3586  TIP3      H2             17.6754303119      -28.6139916656       41.5613917587  TIP3      3386            0.0000000000
     35059      3587  TIP3      OH2            16.1053593616      -31.9252475306       39.4846669532  TIP3      3387            0.0000000000
     35060      3587  TIP3      H1             16.1840293637      -31.4663864568       38.6446475292  TIP3      3387            0.0000000000
     35061      3587  TIP3      H2             15.7430158657      -32.8264373762       39.2672977209  TIP3      3387            0.0000000000
     35062      3588  TIP3      OH2            15.6200099057      -30.7416851223       45.5049844928  TIP3      3388            0.0000000000
     35063      3588  TIP3      H1             15.2316919185      -31.5264961646       45.0873779886  TIP3      3388            0.0000000000
     35064      3588  TIP3      H2             15.1074862768      -30.7237253591       46.3412957958  TIP3      3388            0.0000000000
     35065      3589  TIP3      OH2            -0.0348159614      -28.8776848700       48.8454696801  TIP3      3389            0.0000000000
     35066      3589  TIP3      H1              0.4106638812      -28.9207339867       47.9738691151  TIP3      3389            0.0000000000
     35067      3589  TIP3      H2              0.7344695308      -28.9018529076       49.4489124069  TIP3      3389            0.0000000000
     35068      3590  TIP3      OH2            15.5945284777      -34.4613364925       39.1499459410  TIP3      3390            0.0000000000
     35069      3590  TIP3      H1             16.2259635066      -35.1232864357       39.4944263900  TIP3      3390            0.0000000000
     35070      3590  TIP3      H2             14.7338164315      -34.9334297763       39.0929524146  TIP3      3390            0.0000000000
     35071      3591  TIP3      OH2            14.7662329554      -32.7347870935       43.8010696795  TIP3      3391            0.0000000000
     35072      3591  TIP3      H1             15.0369638779      -33.6866797239       43.7987457290  TIP3      3391            0.0000000000
     35073      3591  TIP3      H2             15.6064673851      -32.3302255892       43.5099010256  TIP3      3391            0.0000000000
     35074      3592  TIP3      OH2            15.7052208798      -32.1854705457       48.8605482205  TIP3      3392            0.0000000000
     35075      3592  TIP3      H1             16.6703356905      -32.3050783992       48.8319035495  TIP3      3392            0.0000000000
     35076      3592  TIP3      H2             15.4189318476      -33.0159772249       49.3078571037  TIP3      3392            0.0000000000
     35077      3593  TIP3      OH2            15.6711711595      -35.3607331686       44.0737455067  TIP3      3393            0.0000000000
     35078      3593  TIP3      H1             15.9174104016      -35.9045719701       44.8454430993  TIP3      3393            0.0000000000
     35079      3593  TIP3      H2             15.0289804306      -35.9247526899       43.5898871487  TIP3      3393            0.0000000000
     35080      3594  TIP3      OH2             1.0350900679      -34.7782462715       48.6780982125  TIP3      3394            0.0000000000
     35081      3594  TIP3      H1              1.6341832346      -35.5536067634       48.7322027330  TIP3      3394            0.0000000000
     35082      3594  TIP3      H2              1.6367938594      -34.0810388455       48.9724753998  TIP3      3394            0.0000000000
     35083      3595  TIP3      OH2            -0.4080962356      -32.1941002489       49.8569549995  TIP3      3395            0.0000000000
     35084      3595  TIP3      H1             -0.1169990181      -32.4414872618       48.9588361883  TIP3      3395            0.0000000000
     35085      3595  TIP3      H2             -0.1940085149      -31.2505660826       49.8160065919  TIP3      3395            0.0000000000
     35086      3596  TIP3      OH2            17.7831798547      -35.8064814446       40.5383009401  TIP3      3396            0.0000000000
     35087      3596  TIP3      H1             18.1533296316      -36.3988682447       39.8493005633  TIP3      3396            0.0000000000
     35088      3596  TIP3      H2             18.4569741944      -35.1000506714       40.6258286200  TIP3      3396            0.0000000000
     35089      3597  TIP3      OH2             0.0045053402      -35.9045395765       43.9114012439  TIP3      3397            0.0000000000
     35090      3597  TIP3      H1             -0.9574523818      -35.9014329251       43.8547878778  TIP3      3397            0.0000000000
     35091      3597  TIP3      H2              0.2428184555      -35.3828601561       43.1101932328  TIP3      3397            0.0000000000
     35092      3598  TIP3      OH2            14.3523414537      -20.7118052988       45.5859540388  TIP3      3398            0.0000000000
     35093      3598  TIP3      H1             15.1778646341      -20.9291108097       45.1007300492  TIP3      3398            0.0000000000
     35094      3598  TIP3      H2             14.6492107815      -20.0891073175       46.2711961442  TIP3      3398            0.0000000000
     35095      3599  TIP3      OH2             1.9337481595      -20.7430178797       48.8195916698  TIP3      3399            0.0000000000
     35096      3599  TIP3      H1              2.0333037795      -20.7130889671       49.8064904515  TIP3      3399            0.0000000000
     35097      3599  TIP3      H2              2.7251970737      -21.2708484435       48.5772629646  TIP3      3399            0.0000000000
     35098      3600  TIP3      OH2             3.9070928218      -22.2349965615       47.7954400405  TIP3      3400            0.0000000000
     35099      3600  TIP3      H1              3.8529225674      -23.1963429550       47.9534675788  TIP3      3400            0.0000000000
     35100      3600  TIP3      H2              4.7820166609      -22.0303117386       48.1815835797  TIP3      3400            0.0000000000
     35101      3601  TIP3      OH2             6.4126376724      -21.7588307991       48.8128710595  TIP3      3401            0.0000000000
     35102      3601  TIP3      H1              6.6556807584      -22.6818822474       48.5954719463  TIP3      3401            0.0000000000
     35103      3601  TIP3      H2              6.3905135901      -21.7908691560       49.7764606825  TIP3      3401            0.0000000000
     35104      3602  TIP3      OH2             9.6477775180      -35.4850990026       48.2427883550  TIP3      3402            0.0000000000
     35105      3602  TIP3      H1              9.1556131720      -36.3337273795       48.2830280227  TIP3      3402            0.0000000000
     35106      3602  TIP3      H2             10.3241225524      -35.7101092224       47.5795177487  TIP3      3402            0.0000000000
     35107      3603  TIP3      OH2            14.8863606010      -37.2440288364       48.1676737396  TIP3      3403            0.0000000000
     35108      3603  TIP3      H1             15.5131295917      -37.0209894083       47.4413722682  TIP3      3403            0.0000000000
     35109      3603  TIP3      H2             14.0743991705      -36.8099081924       47.8599053246  TIP3      3403            0.0000000000
     35110      3604  TIP3      OH2            16.8094171558      -36.5853161808       46.1656615884  TIP3      3404            0.0000000000
     35111      3604  TIP3      H1             17.2692183108      -37.3270047360       45.7304925538  TIP3      3404            0.0000000000
     35112      3604  TIP3      H2             17.4591061911      -35.8498783888       46.0946528894  TIP3      3404            0.0000000000
     35113      3605  TIP3      OH2             2.4350172909      -37.1805443113       45.4252060646  TIP3      3405            0.0000000000
     35114      3605  TIP3      H1              1.7044534258      -37.0018726664       44.8062492561  TIP3      3405            0.0000000000
     35115      3605  TIP3      H2              2.3865661932      -38.1649993915       45.4708571683  TIP3      3405            0.0000000000
     35116      3606  TIP3      OH2             1.3075721786      -37.2016750789       41.7056699995  TIP3      3406            0.0000000000
     35117      3606  TIP3      H1              1.3761605575      -36.7846321504       40.8208537614  TIP3      3406            0.0000000000
     35118      3606  TIP3      H2              0.4416214452      -36.9029988965       42.0053528025  TIP3      3406            0.0000000000
     35119      3607  TIP3      OH2             6.9393151785      -37.1514052876       45.7340142849  TIP3      3407            0.0000000000
     35120      3607  TIP3      H1              7.7013551942      -36.8720822611       45.1919216510  TIP3      3407            0.0000000000
     35121      3607  TIP3      H2              7.3515579302      -37.1723838636       46.6334679492  TIP3      3407            0.0000000000
     35122      3608  TIP3      OH2            11.9520486584      -36.6849831494       46.8134343283  TIP3      3408            0.0000000000
     35123      3608  TIP3      H1             12.4894049105      -36.9242121125       46.0558516378  TIP3      3408            0.0000000000
     35124      3608  TIP3      H2             12.0345554746      -37.4797920766       47.3660843000  TIP3      3408            0.0000000000
     35125      3609  TIP3      OH2            13.6452631295      -36.4440918349       42.4965431729  TIP3      3409            0.0000000000
     35126      3609  TIP3      H1             12.7137340043      -36.1737661724       42.3848191664  TIP3      3409            0.0000000000
     35127      3609  TIP3      H2             13.5255053808      -37.3644266532       42.7757722393  TIP3      3409            0.0000000000
     35128      3610  TIP3      OH2             1.0835049916      -21.7281609164       42.5277957622  TIP3      3410            0.0000000000
     35129      3610  TIP3      H1              0.1164059625      -21.6347834246       42.5122767269  TIP3      3410            0.0000000000
     35130      3610  TIP3      H2              1.3324987335      -20.8238207565       42.2521545245  TIP3      3410            0.0000000000
     35131      3611  TIP3      OH2             2.5708847658      -35.9063867802       39.7989613963  TIP3      3411            0.0000000000
     35132      3611  TIP3      H1              3.1207444624      -36.4821259300       39.2150200542  TIP3      3411            0.0000000000
     35133      3611  TIP3      H2              3.1818792551      -35.8352458797       40.5585909124  TIP3      3411            0.0000000000
     35134      3612  TIP3      OH2             7.5679246123      -35.4003682371       42.5811740486  TIP3      3412            0.0000000000
     35135      3612  TIP3      H1              8.0403900919      -36.0196339680       43.1626845710  TIP3      3412            0.0000000000
     35136      3612  TIP3      H2              7.9853604969      -34.5528773975       42.8639473812  TIP3      3412            0.0000000000
     35137      3613  TIP3      OH2            10.1689421608      -20.4586438816       41.0413703049  TIP3      3413            0.0000000000
     35138      3613  TIP3      H1             11.0999431457      -20.4706017747       40.7487256124  TIP3      3413            0.0000000000
     35139      3613  TIP3      H2              9.7840936444      -20.8056861306       40.2008694122  TIP3      3413            0.0000000000
     35140      3614  TIP3      OH2            16.3707524737      -21.3175894757       43.8123433025  TIP3      3414            0.0000000000
     35141      3614  TIP3      H1             16.1105270241      -22.0704104784       43.2301241427  TIP3      3414            0.0000000000
     35142      3614  TIP3      H2             16.3885012451      -20.6035084647       43.1472586478  TIP3      3414            0.0000000000
     35143      3615  TIP3      OH2             2.3545742779      -20.9719676312       39.3765378966  TIP3      3415            0.0000000000
     35144      3615  TIP3      H1              2.1229684988      -20.5937450745       40.2390313161  TIP3      3415            0.0000000000
     35145      3615  TIP3      H2              3.0876839685      -21.5546268918       39.6404367183  TIP3      3415            0.0000000000
     35146      3616  TIP3      OH2            30.3518268573      -28.4765511068       45.6520723213  TIP3      3416            0.0000000000
     35147      3616  TIP3      H1             30.3868840483      -27.5177410221       45.8300236826  TIP3      3416            0.0000000000
     35148      3616  TIP3      H2             29.5784470352      -28.5257141707       45.0653724547  TIP3      3416            0.0000000000
     35149      3617  TIP3      OH2            29.0799577316      -29.4149634579       48.8008751641  TIP3      3417            0.0000000000
     35150      3617  TIP3      H1             29.0733388208      -29.7726894961       49.7227461032  TIP3      3417            0.0000000000
     35151      3617  TIP3      H2             28.4905460588      -30.0325391718       48.3473340690  TIP3      3417            0.0000000000
     35152      3618  TIP3      OH2            32.0106253087      -26.3641091250       47.0341621886  TIP3      3418            0.0000000000
     35153      3618  TIP3      H1             31.6518224959      -27.0803780815       47.5964479756  TIP3      3418            0.0000000000
     35154      3618  TIP3      H2             32.4213614354      -25.8218136919       47.7408336584  TIP3      3418            0.0000000000
     35155      3619  TIP3      OH2            22.5248733114      -24.9849052326       49.0247795332  TIP3      3419            0.0000000000
     35156      3619  TIP3      H1             22.3740511642      -25.8718275959       48.6147753690  TIP3      3419            0.0000000000
     35157      3619  TIP3      H2             23.4895348725      -24.9032230200       48.9279957973  TIP3      3419            0.0000000000
     35158      3620  TIP3      OH2            19.2203863605      -31.7339133865       44.6441361087  TIP3      3420            0.0000000000
     35159      3620  TIP3      H1             18.8565089235      -30.8595738518       44.8444807849  TIP3      3420            0.0000000000
     35160      3620  TIP3      H2             18.4291395930      -32.2255508214       44.3827131062  TIP3      3420            0.0000000000
     35161      3621  TIP3      OH2            19.5164246112      -29.3350367344       46.2262023676  TIP3      3421            0.0000000000
     35162      3621  TIP3      H1             19.9364465872      -30.0774313923       46.7055120312  TIP3      3421            0.0000000000
     35163      3621  TIP3      H2             20.2500021944      -28.9377749524       45.7373179329  TIP3      3421            0.0000000000
     35164      3622  TIP3      OH2            30.4150037281      -20.8009386327       48.2168274401  TIP3      3422            0.0000000000
     35165      3622  TIP3      H1             30.8232246778      -21.3008827914       47.4643587660  TIP3      3422            0.0000000000
     35166      3622  TIP3      H2             29.6980708762      -21.4212168942       48.4338764368  TIP3      3422            0.0000000000
     35167      3623  TIP3      OH2            27.7755742335      -26.5361348267       50.0927073878  TIP3      3423            0.0000000000
     35168      3623  TIP3      H1             28.0792801190      -26.9390485375       49.2649957192  TIP3      3423            0.0000000000
     35169      3623  TIP3      H2             28.5086719172      -26.7357690951       50.6872378238  TIP3      3423            0.0000000000
     35170      3624  TIP3      OH2            30.7584582039      -32.6498769821       49.9619815383  TIP3      3424            0.0000000000
     35171      3624  TIP3      H1             31.0671679800      -33.5679922030       50.0284565705  TIP3      3424            0.0000000000
     35172      3624  TIP3      H2             31.0611418956      -32.4266420232       49.0644625004  TIP3      3424            0.0000000000
     35173      3625  TIP3      OH2            23.9680630830      -34.2993165967       46.9560807514  TIP3      3425            0.0000000000
     35174      3625  TIP3      H1             24.1078175894      -33.4972009374       46.4036641367  TIP3      3425            0.0000000000
     35175      3625  TIP3      H2             23.4757313038      -34.8591308593       46.3215528452  TIP3      3425            0.0000000000
     35176      3626  TIP3      OH2            31.5669550596      -34.0403140488       45.1196956483  TIP3      3426            0.0000000000
     35177      3626  TIP3      H1             31.9629541169      -34.2798151763       45.9864370931  TIP3      3426            0.0000000000
     35178      3626  TIP3      H2             32.0762340864      -33.2547866080       44.8759085668  TIP3      3426            0.0000000000
     35179      3627  TIP3      OH2            20.0992564875      -31.6757315170       47.6780101569  TIP3      3427            0.0000000000
     35180      3627  TIP3      H1             20.8175973899      -32.0909910549       48.1865002694  TIP3      3427            0.0000000000
     35181      3627  TIP3      H2             20.2782682150      -32.0559631096       46.7961876722  TIP3      3427            0.0000000000
     35182      3628  TIP3      OH2            25.3529299247      -30.2008828739       47.1982906215  TIP3      3428            0.0000000000
     35183      3628  TIP3      H1             26.0676841078      -30.7333697422       47.5793353833  TIP3      3428            0.0000000000
     35184      3628  TIP3      H2             24.9626979827      -30.8712996509       46.5851588866  TIP3      3428            0.0000000000
     35185      3629  TIP3      OH2            29.5938113924      -25.9964488077       44.5061231987  TIP3      3429            0.0000000000
     35186      3629  TIP3      H1             29.3663793750      -25.9009395038       43.5674023234  TIP3      3429            0.0000000000
     35187      3629  TIP3      H2             29.2760233453      -25.1454511580       44.8663442024  TIP3      3429            0.0000000000
     35188      3630  TIP3      OH2            32.6409872001      -34.6129865042       47.4837354748  TIP3      3430            0.0000000000
     35189      3630  TIP3      H1             32.2139594168      -34.7544996939       48.3499508232  TIP3      3430            0.0000000000
     35190      3630  TIP3      H2             33.5841146740      -34.7879841927       47.6492195520  TIP3      3430            0.0000000000
     35191      3631  TIP3      OH2            22.3375871051      -33.3584447582       48.9052977942  TIP3      3431            0.0000000000
     35192      3631  TIP3      H1             22.6276364839      -32.4551358980       48.7203666617  TIP3      3431            0.0000000000
     35193      3631  TIP3      H2             22.7751761696      -33.8448708775       48.1707437000  TIP3      3431            0.0000000000
     35194      3632  TIP3      OH2            19.7185257642      -26.1127970021       42.7432972265  TIP3      3432            0.0000000000
     35195      3632  TIP3      H1             19.6403891735      -25.5247573383       41.9638359885  TIP3      3432            0.0000000000
     35196      3632  TIP3      H2             19.8069974509      -25.4619802412       43.4628520870  TIP3      3432            0.0000000000
     35197      3633  TIP3      OH2            33.4759841607      -25.0502585518       48.9819335825  TIP3      3433            0.0000000000
     35198      3633  TIP3      H1             33.1026931122      -25.5685785951       49.7220301410  TIP3      3433            0.0000000000
     35199      3633  TIP3      H2             33.8080664600      -24.2827652916       49.4563200196  TIP3      3433            0.0000000000
     35200      3634  TIP3      OH2            26.5641884412      -37.4899289126       48.2128221054  TIP3      3434            0.0000000000
     35201      3634  TIP3      H1             26.6914702997      -38.4518889300       48.3767252311  TIP3      3434            0.0000000000
     35202      3634  TIP3      H2             25.8191696141      -37.3213053776       48.8194716326  TIP3      3434            0.0000000000
     35203      3635  TIP3      OH2            31.3247364030      -22.4294582871       46.1973936086  TIP3      3435            0.0000000000
     35204      3635  TIP3      H1             31.5664487338      -23.3330673794       45.8768723056  TIP3      3435            0.0000000000
     35205      3635  TIP3      H2             32.1467343278      -21.9302977318       45.9867021213  TIP3      3435            0.0000000000
     35206      3636  TIP3      OH2            32.7628514598      -24.6118610208       44.9616921226  TIP3      3436            0.0000000000
     35207      3636  TIP3      H1             32.6440525767      -25.3317560793       44.3194042784  TIP3      3436            0.0000000000
     35208      3636  TIP3      H2             32.9447565106      -25.1275507264       45.7736805808  TIP3      3436            0.0000000000
     35209      3637  TIP3      OH2            28.8428676567      -29.1317150658       43.1410418992  TIP3      3437            0.0000000000
     35210      3637  TIP3      H1             28.4191160232      -28.2807317813       42.9172674875  TIP3      3437            0.0000000000
     35211      3637  TIP3      H2             29.7346483479      -29.0442431210       42.7432685127  TIP3      3437            0.0000000000
     35212      3638  TIP3      OH2            29.0702384188      -30.1118416976       39.9330231277  TIP3      3438            0.0000000000
     35213      3638  TIP3      H1             29.6731761309      -29.6923054384       40.5786098979  TIP3      3438            0.0000000000
     35214      3638  TIP3      H2             29.1800513741      -31.0424571260       40.1661379074  TIP3      3438            0.0000000000
     35215      3639  TIP3      OH2            32.5729910271      -28.8692170263       43.9497638860  TIP3      3439            0.0000000000
     35216      3639  TIP3      H1             31.8990614781      -28.6285960784       44.6248258630  TIP3      3439            0.0000000000
     35217      3639  TIP3      H2             33.1313778086      -29.4743420907       44.4953931827  TIP3      3439            0.0000000000
     35218      3640  TIP3      OH2            23.9805956209      -28.3611315909       45.8482404419  TIP3      3440            0.0000000000
     35219      3640  TIP3      H1             23.6636417639      -28.8306931672       45.0482929570  TIP3      3440            0.0000000000
     35220      3640  TIP3      H2             24.5721306750      -29.0150783965       46.2791407585  TIP3      3440            0.0000000000
     35221      3641  TIP3      OH2            25.3385939412      -24.6356363061       48.5148912120  TIP3      3441            0.0000000000
     35222      3641  TIP3      H1             25.1450845463      -24.8715927068       47.5779605116  TIP3      3441            0.0000000000
     35223      3641  TIP3      H2             25.8961131359      -25.3836958142       48.8015901883  TIP3      3441            0.0000000000
     35224      3642  TIP3      OH2            23.6867342873      -30.0339186930       49.3809956972  TIP3      3442            0.0000000000
     35225      3642  TIP3      H1             24.2211283397      -29.8913510114       48.5714186885  TIP3      3442            0.0000000000
     35226      3642  TIP3      H2             24.0170161213      -29.3200554529       49.9647361847  TIP3      3442            0.0000000000
     35227      3643  TIP3      OH2            31.1137423089      -29.5470457939       41.7101891933  TIP3      3443            0.0000000000
     35228      3643  TIP3      H1             31.6987674861      -29.2766811726       42.4536552040  TIP3      3443            0.0000000000
     35229      3643  TIP3      H2             31.5971396363      -29.1314042264       40.9479359528  TIP3      3443            0.0000000000
     35230      3644  TIP3      OH2            28.9116848843      -23.3788571173       44.7686682557  TIP3      3444            0.0000000000
     35231      3644  TIP3      H1             29.3902893599      -23.0456261999       45.5414431945  TIP3      3444            0.0000000000
     35232      3644  TIP3      H2             28.4673960667      -22.5746831171       44.4488233238  TIP3      3444            0.0000000000
     35233      3645  TIP3      OH2            34.7480970492      -37.3410710353       41.0666136399  TIP3      3445            0.0000000000
     35234      3645  TIP3      H1             33.9571463462      -36.9098431763       41.4134301062  TIP3      3445            0.0000000000
     35235      3645  TIP3      H2             35.4187914983      -36.6501768822       41.2578745925  TIP3      3445            0.0000000000
     35236      3646  TIP3      OH2            22.5974258945      -29.2961518804       43.5650564560  TIP3      3446            0.0000000000
     35237      3646  TIP3      H1             22.4506086768      -28.4343898244       43.1234333252  TIP3      3446            0.0000000000
     35238      3646  TIP3      H2             22.3764128819      -29.9203754850       42.8579278883  TIP3      3446            0.0000000000
     35239      3647  TIP3      OH2            36.0821928043      -23.4778777294       40.0648392240  TIP3      3447            0.0000000000
     35240      3647  TIP3      H1             36.3830907072      -22.5565283147       40.2333446689  TIP3      3447            0.0000000000
     35241      3647  TIP3      H2             36.9554056873      -23.8980945066       40.1315879536  TIP3      3447            0.0000000000
     35242      3648  TIP3      OH2            18.9069771850      -23.6591660144       48.6301183768  TIP3      3448            0.0000000000
     35243      3648  TIP3      H1             19.6247720942      -24.1776862720       49.0168861081  TIP3      3448            0.0000000000
     35244      3648  TIP3      H2             18.4662213282      -23.2805804025       49.4005798063  TIP3      3448            0.0000000000
     35245      3649  TIP3      OH2            28.5537602570      -20.4112448571       43.4879186293  TIP3      3449            0.0000000000
     35246      3649  TIP3      H1             28.4679791214      -20.3076178357       42.5085922340  TIP3      3449            0.0000000000
     35247      3649  TIP3      H2             28.3861426269      -19.4807805657       43.7637317961  TIP3      3449            0.0000000000
     35248      3650  TIP3      OH2            22.1313717572      -21.5030743496       45.2495913495  TIP3      3450            0.0000000000
     35249      3650  TIP3      H1             22.3241370943      -21.6360088760       46.2040591347  TIP3      3450            0.0000000000
     35250      3650  TIP3      H2             21.2223722209      -21.8489217198       45.1740759891  TIP3      3450            0.0000000000
     35251      3651  TIP3      OH2            31.3596503226      -20.9934038940       40.4610431596  TIP3      3451            0.0000000000
     35252      3651  TIP3      H1             31.8875313873      -21.7312984361       40.0672563390  TIP3      3451            0.0000000000
     35253      3651  TIP3      H2             31.4770770348      -21.1637719771       41.4158600814  TIP3      3451            0.0000000000
     35254      3652  TIP3      OH2            31.1590377410      -21.1575639974       43.1823835050  TIP3      3452            0.0000000000
     35255      3652  TIP3      H1             30.2041026056      -21.0145547867       43.3351203079  TIP3      3452            0.0000000000
     35256      3652  TIP3      H2             31.3576066629      -21.8200686560       43.8619536506  TIP3      3452            0.0000000000
     35257      3653  TIP3      OH2            24.1186593538      -36.6339062963       49.4863800621  TIP3      3453            0.0000000000
     35258      3653  TIP3      H1             23.3897106488      -36.4863905298       48.8428588300  TIP3      3453            0.0000000000
     35259      3653  TIP3      H2             24.4647177515      -35.7240974987       49.5996388079  TIP3      3453            0.0000000000
     35260      3654  TIP3      OH2            32.5541275375      -28.3363153299       39.8560369621  TIP3      3454            0.0000000000
     35261      3654  TIP3      H1             32.3045413206      -28.2440646155       38.9088115522  TIP3      3454            0.0000000000
     35262      3654  TIP3      H2             33.5102342885      -28.1540263891       39.8070104122  TIP3      3454            0.0000000000
     35263      3655  TIP3      OH2            28.0783706647      -34.6685482700       40.3235198826  TIP3      3455            0.0000000000
     35264      3655  TIP3      H1             27.8192485179      -35.2478432647       41.0570073067  TIP3      3455            0.0000000000
     35265      3655  TIP3      H2             27.7474369242      -35.1755092834       39.5700370495  TIP3      3455            0.0000000000
     35266      3656  TIP3      OH2            24.1163821202      -31.9815805772       45.6975278660  TIP3      3456            0.0000000000
     35267      3656  TIP3      H1             23.1572508541      -32.1837041723       45.6250141606  TIP3      3456            0.0000000000
     35268      3656  TIP3      H2             24.4314217282      -32.1598311614       44.7824348993  TIP3      3456            0.0000000000
     35269      3657  TIP3      OH2            29.8768039100      -31.3727752680       44.1613010674  TIP3      3457            0.0000000000
     35270      3657  TIP3      H1             29.4018736055      -30.6218641449       43.7355529737  TIP3      3457            0.0000000000
     35271      3657  TIP3      H2             30.4166453956      -31.6717025238       43.4100670790  TIP3      3457            0.0000000000
     35272      3658  TIP3      OH2            30.6980648059      -32.1066869880       47.0531471855  TIP3      3458            0.0000000000
     35273      3658  TIP3      H1             30.4302673723      -31.4564184115       46.3732195680  TIP3      3458            0.0000000000
     35274      3658  TIP3      H2             30.7292941198      -32.9012748254       46.4833543446  TIP3      3458            0.0000000000
     35275      3659  TIP3      OH2            24.7845492930      -34.3926824159       39.1223800110  TIP3      3459            0.0000000000
     35276      3659  TIP3      H1             24.3511978668      -34.7841163023       39.9179138348  TIP3      3459            0.0000000000
     35277      3659  TIP3      H2             24.0524391035      -33.8358351247       38.7900594676  TIP3      3459            0.0000000000
     35278      3660  TIP3      OH2            18.4357459605      -34.2659643318       46.4225290356  TIP3      3460            0.0000000000
     35279      3660  TIP3      H1             18.8832102370      -34.3948272339       47.2877001579  TIP3      3460            0.0000000000
     35280      3660  TIP3      H2             19.0798647244      -34.6410145816       45.8098658237  TIP3      3460            0.0000000000
     35281      3661  TIP3      OH2            19.3138633567      -33.9646621164       41.6999722924  TIP3      3461            0.0000000000
     35282      3661  TIP3      H1             19.9708658779      -33.5976307942       41.0847024271  TIP3      3461            0.0000000000
     35283      3661  TIP3      H2             18.8423609144      -33.1498072978       41.9747429503  TIP3      3461            0.0000000000
     35284      3662  TIP3      OH2            26.8195127696      -34.3763435920       46.3071124193  TIP3      3462            0.0000000000
     35285      3662  TIP3      H1             25.9885250821      -34.7582189335       46.6397439317  TIP3      3462            0.0000000000
     35286      3662  TIP3      H2             27.4126328585      -34.5871752429       47.0580134613  TIP3      3462            0.0000000000
     35287      3663  TIP3      OH2            21.5129617288      -32.8405136973       45.5573168710  TIP3      3463            0.0000000000
     35288      3663  TIP3      H1             20.7381523652      -32.3962157115       45.1491399537  TIP3      3463            0.0000000000
     35289      3663  TIP3      H2             21.7325598847      -33.5106044219       44.8768333150  TIP3      3463            0.0000000000
     35290      3664  TIP3      OH2            24.9000291457      -32.3949415894       43.2016045630  TIP3      3464            0.0000000000
     35291      3664  TIP3      H1             25.8141873926      -32.5889179604       42.9205578503  TIP3      3464            0.0000000000
     35292      3664  TIP3      H2             24.5018740043      -31.9527958379       42.4338596450  TIP3      3464            0.0000000000
     35293      3665  TIP3      OH2            30.8159896707      -35.4797245549       49.6017377828  TIP3      3465            0.0000000000
     35294      3665  TIP3      H1             30.5185473630      -35.6577190465       50.5092191060  TIP3      3465            0.0000000000
     35295      3665  TIP3      H2             29.9499993860      -35.6104130666       49.1665311364  TIP3      3465            0.0000000000
     35296      3666  TIP3      OH2            23.8821128616      -31.2415382725       40.5374214198  TIP3      3466            0.0000000000
     35297      3666  TIP3      H1             23.5965920466      -31.9980522134       40.0053368854  TIP3      3466            0.0000000000
     35298      3666  TIP3      H2             24.6856426189      -30.9848040593       40.0402014256  TIP3      3466            0.0000000000
     35299      3667  TIP3      OH2            27.7982438377      -31.8993018271       48.5496718160  TIP3      3467            0.0000000000
     35300      3667  TIP3      H1             28.4977379240      -32.0917763067       47.9060323374  TIP3      3467            0.0000000000
     35301      3667  TIP3      H2             28.0476550064      -32.5320603816       49.2373565802  TIP3      3467            0.0000000000
     35302      3668  TIP3      OH2            22.6855000697      -35.2274591967       44.5897514391  TIP3      3468            0.0000000000
     35303      3668  TIP3      H1             22.1956800393      -35.9817130465       44.9836662327  TIP3      3468            0.0000000000
     35304      3668  TIP3      H2             23.3895882417      -35.7213215744       44.1557142926  TIP3      3468            0.0000000000
     35305      3669  TIP3      OH2            27.1836172021      -26.8549727920       42.5961915640  TIP3      3469            0.0000000000
     35306      3669  TIP3      H1             26.4397092952      -27.3509343627       42.1927446959  TIP3      3469            0.0000000000
     35307      3669  TIP3      H2             26.7502012614      -26.6206550910       43.4536974526  TIP3      3469            0.0000000000
     35308      3670  TIP3      OH2            30.6215153432      -34.3624295713       40.8842255763  TIP3      3470            0.0000000000
     35309      3670  TIP3      H1             29.6897493243      -34.2198047470       40.6153964682  TIP3      3470            0.0000000000
     35310      3670  TIP3      H2             30.9164403198      -33.4588603193       41.1464438972  TIP3      3470            0.0000000000
     35311      3671  TIP3      OH2            31.5441305494      -32.2816105232       42.0843155636  TIP3      3471            0.0000000000
     35312      3671  TIP3      H1             32.4354526337      -32.3397376811       42.4883318699  TIP3      3471            0.0000000000
     35313      3671  TIP3      H2             31.6013154575      -31.4678443061       41.5503866469  TIP3      3471            0.0000000000
     35314      3672  TIP3      OH2            21.9929010840      -27.4693576550       48.0802572460  TIP3      3472            0.0000000000
     35315      3672  TIP3      H1             22.2890693604      -27.7316868214       47.1893842615  TIP3      3472            0.0000000000
     35316      3672  TIP3      H2             22.6054149269      -27.9363191442       48.6686353422  TIP3      3472            0.0000000000
     35317      3673  TIP3      OH2            29.1553939275      -25.4980146679       41.5738182767  TIP3      3473            0.0000000000
     35318      3673  TIP3      H1             28.7814258658      -24.6150269609       41.7944576640  TIP3      3473            0.0000000000
     35319      3673  TIP3      H2             28.4389506687      -26.0983966369       41.8784531190  TIP3      3473            0.0000000000
     35320      3674  TIP3      OH2            36.2907684158      -32.0500770255       41.9862272785  TIP3      3474            0.0000000000
     35321      3674  TIP3      H1             35.8285230794      -32.4492531051       41.2220556766  TIP3      3474            0.0000000000
     35322      3674  TIP3      H2             36.5229610738      -31.1690313985       41.6012237619  TIP3      3474            0.0000000000
     35323      3675  TIP3      OH2            34.6962671709      -23.3616468465       42.4149980885  TIP3      3475            0.0000000000
     35324      3675  TIP3      H1             34.1222444355      -24.1123579556       42.6273505404  TIP3      3475            0.0000000000
     35325      3675  TIP3      H2             35.2031614012      -23.6510493338       41.6252986631  TIP3      3475            0.0000000000
     35326      3676  TIP3      OH2            31.4844455893      -28.2266553049       48.9278884452  TIP3      3476            0.0000000000
     35327      3676  TIP3      H1             30.6351648130      -28.6936887694       48.7182198225  TIP3      3476            0.0000000000
     35328      3676  TIP3      H2             32.1270510986      -28.7641341213       48.4030277848  TIP3      3476            0.0000000000
     35329      3677  TIP3      OH2            24.4057001253      -24.1028206181       45.9482884762  TIP3      3477            0.0000000000
     35330      3677  TIP3      H1             24.8427859531      -23.2432565198       45.7884886011  TIP3      3477            0.0000000000
     35331      3677  TIP3      H2             23.6356685938      -24.0117668076       45.3792470700  TIP3      3477            0.0000000000
     35332      3678  TIP3      OH2            20.7104602220      -29.1540356455       40.3822041803  TIP3      3478            0.0000000000
     35333      3678  TIP3      H1             21.1213179665      -28.5452173977       41.0318715910  TIP3      3478            0.0000000000
     35334      3678  TIP3      H2             19.7471245265      -29.0934330224       40.5736994757  TIP3      3478            0.0000000000
     35335      3679  TIP3      OH2            25.6816630575      -26.4923441136       44.7804225350  TIP3      3479            0.0000000000
     35336      3679  TIP3      H1             25.3592230543      -25.6974424751       45.2374631678  TIP3      3479            0.0000000000
     35337      3679  TIP3      H2             25.1953214773      -27.2013782658       45.2499399431  TIP3      3479            0.0000000000
     35338      3680  TIP3      OH2            24.7201424743      -21.7174381585       44.4923564563  TIP3      3480            0.0000000000
     35339      3680  TIP3      H1             23.7507319184      -21.6238399541       44.6119118881  TIP3      3480            0.0000000000
     35340      3680  TIP3      H2             25.0050708688      -20.8597965400       44.8519093420  TIP3      3480            0.0000000000
     35341      3681  TIP3      OH2            32.4406495687      -25.0698579315       40.3281848145  TIP3      3481            0.0000000000
     35342      3681  TIP3      H1             32.5996350415      -25.5413690210       41.1739345179  TIP3      3481            0.0000000000
     35343      3681  TIP3      H2             31.5361919444      -25.3908336070       40.1753769752  TIP3      3481            0.0000000000
     35344      3682  TIP3      OH2            36.9173507348      -20.9786086868       40.5207290102  TIP3      3482            0.0000000000
     35345      3682  TIP3      H1             37.1598948233      -20.1247039254       40.1093952577  TIP3      3482            0.0000000000
     35346      3682  TIP3      H2             36.0540763886      -20.7123053737       40.8658694262  TIP3      3482            0.0000000000
     35347      3683  TIP3      OH2            33.4111637608      -26.6285103385       42.4368702210  TIP3      3483            0.0000000000
     35348      3683  TIP3      H1             33.1028158603      -27.5270870996       42.6628059958  TIP3      3483            0.0000000000
     35349      3683  TIP3      H2             34.3858151683      -26.7546297377       42.3553290529  TIP3      3483            0.0000000000
     35350      3684  TIP3      OH2            26.3827557598      -23.9199930265       38.8280225770  TIP3      3484            0.0000000000
     35351      3684  TIP3      H1             26.1861720005      -24.4126812341       38.0128471195  TIP3      3484            0.0000000000
     35352      3684  TIP3      H2             25.8571635613      -24.4388526791       39.4739362038  TIP3      3484            0.0000000000
     35353      3685  TIP3      OH2            25.1868168340      -24.8346435690       41.2055450014  TIP3      3485            0.0000000000
     35354      3685  TIP3      H1             25.9797732350      -25.2074350416       41.6234322604  TIP3      3485            0.0000000000
     35355      3685  TIP3      H2             25.2651650444      -23.9009900423       41.5180249110  TIP3      3485            0.0000000000
     35356      3686  TIP3      OH2            21.9658709700      -27.2787081812       41.8007817690  TIP3      3486            0.0000000000
     35357      3686  TIP3      H1             21.1135480007      -26.8908756569       42.1079856824  TIP3      3486            0.0000000000
     35358      3686  TIP3      H2             22.3815907845      -26.5123404403       41.3668635446  TIP3      3486            0.0000000000
     35359      3687  TIP3      OH2            30.0150913834      -35.3378557291       43.4971774117  TIP3      3487            0.0000000000
     35360      3687  TIP3      H1             29.9783903381      -34.6374050241       42.8261160289  TIP3      3487            0.0000000000
     35361      3687  TIP3      H2             30.6630670939      -34.9585420416       44.1258523854  TIP3      3487            0.0000000000
     35362      3688  TIP3      OH2            28.0744309951      -22.9099111831       41.8590944346  TIP3      3488            0.0000000000
     35363      3688  TIP3      H1             27.1688234457      -22.5791798497       42.0333192458  TIP3      3488            0.0000000000
     35364      3688  TIP3      H2             28.5391711807      -22.0786562884       41.6567946461  TIP3      3488            0.0000000000
     35365      3689  TIP3      OH2            27.4353621343      -33.3923293202       43.8865314568  TIP3      3489            0.0000000000
     35366      3689  TIP3      H1             28.1976480852      -32.8419085261       44.1373913941  TIP3      3489            0.0000000000
     35367      3689  TIP3      H2             27.0735554812      -33.6474465651       44.7686302671  TIP3      3489            0.0000000000
     35368      3690  TIP3      OH2            28.1199425328      -36.4065746146       44.8674110794  TIP3      3490            0.0000000000
     35369      3690  TIP3      H1             27.9913800728      -35.4878664328       45.1569864419  TIP3      3490            0.0000000000
     35370      3690  TIP3      H2             28.9882177180      -36.2954976161       44.4237010956  TIP3      3490            0.0000000000
     35371      3691  TIP3      OH2            25.4407575128      -22.3011860128       41.8474982537  TIP3      3491            0.0000000000
     35372      3691  TIP3      H1             25.5363986064      -21.5245293329       41.2385050058  TIP3      3491            0.0000000000
     35373      3691  TIP3      H2             24.9837142559      -21.8539261730       42.5892880719  TIP3      3491            0.0000000000
     35374      3692  TIP3      OH2            23.6934572557      -34.9759210882       41.5296830018  TIP3      3492            0.0000000000
     35375      3692  TIP3      H1             23.5214130814      -34.2901397275       42.1888598775  TIP3      3492            0.0000000000
     35376      3692  TIP3      H2             24.6310356693      -35.1490717267       41.7711724929  TIP3      3492            0.0000000000
     35377      3693  TIP3      OH2            32.6865647300      -30.1125486720       47.5504447425  TIP3      3493            0.0000000000
     35378      3693  TIP3      H1             31.9448425300      -30.7371865559       47.4395363961  TIP3      3493            0.0000000000
     35379      3693  TIP3      H2             33.2356917174      -30.6289431394       48.1731265479  TIP3      3493            0.0000000000
     35380      3694  TIP3      OH2            22.3270469260      -24.8755423940       40.3729207677  TIP3      3494            0.0000000000
     35381      3694  TIP3      H1             23.0367816041      -24.4851343694       40.9067746876  TIP3      3494            0.0000000000
     35382      3694  TIP3      H2             22.8569849481      -25.3590921672       39.7154919652  TIP3      3494            0.0000000000
     35383      3695  TIP3      OH2            20.6056270606      -31.9721205277       39.7369448536  TIP3      3495            0.0000000000
     35384      3695  TIP3      H1             21.0259903054      -31.1320143222       40.0090192394  TIP3      3495            0.0000000000
     35385      3695  TIP3      H2             19.8755846235      -31.6257647612       39.2072546537  TIP3      3495            0.0000000000
     35386      3696  TIP3      OH2            34.3667982948      -21.2722135678       49.6143903354  TIP3      3496            0.0000000000
     35387      3696  TIP3      H1             34.4027561753      -20.6414719695       48.8720147668  TIP3      3496            0.0000000000
     35388      3696  TIP3      H2             35.2832233430      -21.2511419177       49.9475732176  TIP3      3496            0.0000000000
     35389      3697  TIP3      OH2            21.7823675850      -36.7777703842       47.9617882984  TIP3      3497            0.0000000000
     35390      3697  TIP3      H1             21.7381362397      -36.8025394797       46.9806859078  TIP3      3497            0.0000000000
     35391      3697  TIP3      H2             21.4367844223      -37.6885196939       48.1238053045  TIP3      3497            0.0000000000
     35392      3698  TIP3      OH2            20.2484409570      -23.6389586175       44.4577166898  TIP3      3498            0.0000000000
     35393      3698  TIP3      H1             19.4817306971      -23.0749679227       44.6345536116  TIP3      3498            0.0000000000
     35394      3698  TIP3      H2             20.5937015889      -23.1646662365       43.6802660068  TIP3      3498            0.0000000000
     35395      3699  TIP3      OH2            28.4766950120      -21.9845646012       38.8033408106  TIP3      3499            0.0000000000
     35396      3699  TIP3      H1             27.9975126184      -22.8153737272       39.0098432522  TIP3      3499            0.0000000000
     35397      3699  TIP3      H2             29.3181897039      -22.3323999284       38.4421614926  TIP3      3499            0.0000000000
     35398      3700  TIP3      OH2            33.0498403590      -22.6369322851       39.0574041627  TIP3      3500            0.0000000000
     35399      3700  TIP3      H1             33.2475154683      -23.3832870098       39.6585042056  TIP3      3500            0.0000000000
     35400      3700  TIP3      H2             33.8265122906      -22.6426554357       38.4672506279  TIP3      3500            0.0000000000
     35401      3701  TIP3      OH2            23.8400808898      -26.7718555517       38.7317067859  TIP3      3501            0.0000000000
     35402      3701  TIP3      H1             24.1149081600      -27.1147995796       39.5915950497  TIP3      3501            0.0000000000
     35403      3701  TIP3      H2             24.6130030524      -27.0273112267       38.1639190952  TIP3      3501            0.0000000000
     35404      3702  TIP3      OH2            29.5148468941      -25.4715467748       38.6081077544  TIP3      3502            0.0000000000
     35405      3702  TIP3      H1             29.1644434619      -25.5085831620       39.5173385821  TIP3      3502            0.0000000000
     35406      3702  TIP3      H2             29.3473914305      -26.4111680608       38.3478697151  TIP3      3502            0.0000000000
     35407      3703  TIP3      OH2            25.1802210563      -28.4828348518       41.4535347947  TIP3      3503            0.0000000000
     35408      3703  TIP3      H1             24.5363382731      -29.0898744008       41.8525197520  TIP3      3503            0.0000000000
     35409      3703  TIP3      H2             25.6388983270      -29.0878524725       40.8493740466  TIP3      3503            0.0000000000
     35410      3704  TIP3      OH2            26.4835302657      -30.3270935374       39.3248858377  TIP3      3504            0.0000000000
     35411      3704  TIP3      H1             26.3936719295      -30.0207124382       38.3980839538  TIP3      3504            0.0000000000
     35412      3704  TIP3      H2             27.4541478912      -30.2053255120       39.4288025673  TIP3      3504            0.0000000000
     35413      3705  TIP3      OH2            35.3572356799      -28.2524198514       38.8798107211  TIP3      3505            0.0000000000
     35414      3705  TIP3      H1             35.0028362404      -28.3418622157       37.9712290832  TIP3      3505            0.0000000000
     35415      3705  TIP3      H2             35.4719854424      -27.2742454136       38.9562716537  TIP3      3505            0.0000000000
     35416      3706  TIP3      OH2            25.9695774822      -19.9671103423       40.8133992863  TIP3      3506            0.0000000000
     35417      3706  TIP3      H1             26.9142272440      -19.9231554376       41.0378585974  TIP3      3506            0.0000000000
     35418      3706  TIP3      H2             25.9435167213      -19.3257634647       40.0798096520  TIP3      3506            0.0000000000
     35419      3707  TIP3      OH2            19.5716309672      -25.1235292474       40.1840779490  TIP3      3507            0.0000000000
     35420      3707  TIP3      H1             20.5550299597      -25.1107645338       40.1522283304  TIP3      3507            0.0000000000
     35421      3707  TIP3      H2             19.3457386544      -25.6526165255       39.3803688236  TIP3      3507            0.0000000000
     35422      3708  TIP3      OH2            18.4463961187      -19.9966383458       44.7605164233  TIP3      3508            0.0000000000
     35423      3708  TIP3      H1             17.6268486155      -20.4931010775       44.5367748440  TIP3      3508            0.0000000000
     35424      3708  TIP3      H2             18.7059307397      -20.4750547721       45.5774942461  TIP3      3508            0.0000000000
     35425      3709  TIP3      OH2            19.1607615915      -21.6791988074       46.7504570248  TIP3      3509            0.0000000000
     35426      3709  TIP3      H1             18.8312492366      -22.5105980944       47.1615737916  TIP3      3509            0.0000000000
     35427      3709  TIP3      H2             19.5828716845      -21.2452606798       47.5277628327  TIP3      3509            0.0000000000
     35428      3710  TIP3      OH2            36.1034404064      -27.1056344404       42.6267168963  TIP3      3510            0.0000000000
     35429      3710  TIP3      H1             36.9934022909      -26.8138723991       42.8525002717  TIP3      3510            0.0000000000
     35430      3710  TIP3      H2             35.9723313197      -27.7667780452       43.3383267474  TIP3      3510            0.0000000000
     35431      3711  TIP3      OH2            36.2878260617      -28.9201759337       44.7114691170  TIP3      3511            0.0000000000
     35432      3711  TIP3      H1             35.3959200349      -29.3187587070       44.8423731324  TIP3      3511            0.0000000000
     35433      3711  TIP3      H2             36.7110311462      -29.1448270324       45.5566004536  TIP3      3511            0.0000000000
     35434      3712  TIP3      OH2            37.0797583003      -26.6022695889       49.6816114264  TIP3      3512            0.0000000000
     35435      3712  TIP3      H1             37.9978051756      -26.4594905855       49.4006837065  TIP3      3512            0.0000000000
     35436      3712  TIP3      H2             36.6720784436      -25.7454334880       49.4274724694  TIP3      3512            0.0000000000
     35437      3713  TIP3      OH2            36.5342290985      -29.3817588577       41.1242000395  TIP3      3513            0.0000000000
     35438      3713  TIP3      H1             35.9891699730      -29.2676581295       40.3178486835  TIP3      3513            0.0000000000
     35439      3713  TIP3      H2             36.5103277116      -28.4727543330       41.4704535368  TIP3      3513            0.0000000000
     35440      3714  TIP3      OH2            34.7227111729      -32.0356646880       39.6989044496  TIP3      3514            0.0000000000
     35441      3714  TIP3      H1             34.8510538065      -31.4884881276       38.9161446838  TIP3      3514            0.0000000000
     35442      3714  TIP3      H2             34.5104434164      -32.9161833709       39.3110358407  TIP3      3514            0.0000000000
     35443      3715  TIP3      OH2            34.2033254853      -30.4613732689       45.4608260468  TIP3      3515            0.0000000000
     35444      3715  TIP3      H1             34.7672533599      -31.2300199756       45.6196565921  TIP3      3515            0.0000000000
     35445      3715  TIP3      H2             33.6200572987      -30.4684803028       46.2486621689  TIP3      3515            0.0000000000
     35446      3716  TIP3      OH2            18.8462935671      -28.9592883696       48.8113471581  TIP3      3516            0.0000000000
     35447      3716  TIP3      H1             19.2030297814      -28.9971673320       47.8998729840  TIP3      3516            0.0000000000
     35448      3716  TIP3      H2             19.6680317270      -28.8730063630       49.3258108826  TIP3      3516            0.0000000000
     35449      3717  TIP3      OH2            34.2602751444      -34.5182435440       38.7019804681  TIP3      3517            0.0000000000
     35450      3717  TIP3      H1             34.6363565641      -35.1043357054       39.3875388001  TIP3      3517            0.0000000000
     35451      3717  TIP3      H2             33.3135487424      -34.7854566540       38.6858317399  TIP3      3517            0.0000000000
     35452      3718  TIP3      OH2            33.9859137158      -32.8870048312       43.6069392709  TIP3      3518            0.0000000000
     35453      3718  TIP3      H1             34.0949970053      -33.8555058746       43.7150584887  TIP3      3518            0.0000000000
     35454      3718  TIP3      H2             34.9126142144      -32.6273592294       43.4966923981  TIP3      3518            0.0000000000
     35455      3719  TIP3      OH2            33.9348791722      -32.1133828964       48.7641658939  TIP3      3519            0.0000000000
     35456      3719  TIP3      H1             34.9068071673      -32.1827193278       48.5772516914  TIP3      3519            0.0000000000
     35457      3719  TIP3      H2             33.8152670797      -32.9591992150       49.2325843651  TIP3      3519            0.0000000000
     35458      3720  TIP3      OH2            34.4280287845      -35.5244989001       43.8610082893  TIP3      3520            0.0000000000
     35459      3720  TIP3      H1             34.4873260898      -36.1962511713       44.5701595250  TIP3      3520            0.0000000000
     35460      3720  TIP3      H2             33.5938278540      -35.7933688173       43.3985814830  TIP3      3520            0.0000000000
     35461      3721  TIP3      OH2            19.8480415569      -34.9008779666       48.7054574346  TIP3      3521            0.0000000000
     35462      3721  TIP3      H1             20.4679042802      -35.6656581631       48.7428402298  TIP3      3521            0.0000000000
     35463      3721  TIP3      H2             20.4415713697      -34.1842976544       48.9885097029  TIP3      3521            0.0000000000
     35464      3722  TIP3      OH2            18.4725268954      -32.0804667497       49.8061333799  TIP3      3522            0.0000000000
     35465      3722  TIP3      H1             18.8755727778      -32.1262917752       48.9133213226  TIP3      3522            0.0000000000
     35466      3722  TIP3      H2             18.5740526106      -31.1308822865       49.9935477520  TIP3      3522            0.0000000000
     35467      3723  TIP3      OH2            36.4484691147      -35.4290985538       40.4962686575  TIP3      3523            0.0000000000
     35468      3723  TIP3      H1             36.8685148278      -36.2081998997       40.0433673800  TIP3      3523            0.0000000000
     35469      3723  TIP3      H2             36.7297511860      -34.6913282221       39.9484791424  TIP3      3523            0.0000000000
     35470      3724  TIP3      OH2            18.9328505850      -35.9168269837       43.9317546468  TIP3      3524            0.0000000000
     35471      3724  TIP3      H1             17.9759914473      -36.0007251615       43.9017164429  TIP3      3524            0.0000000000
     35472      3724  TIP3      H2             19.0889532644      -35.3966032242       43.1252597668  TIP3      3524            0.0000000000
     35473      3725  TIP3      OH2            33.3905288704      -20.6831034659       45.6547114793  TIP3      3525            0.0000000000
     35474      3725  TIP3      H1             33.8934934384      -20.8831722543       44.8269581959  TIP3      3525            0.0000000000
     35475      3725  TIP3      H2             34.0888489952      -20.3008662670       46.2138653774  TIP3      3525            0.0000000000
     35476      3726  TIP3      OH2            20.7952677066      -20.7159674963       48.8763987952  TIP3      3526            0.0000000000
     35477      3726  TIP3      H1             20.9910165575      -20.6575041348       49.8372797439  TIP3      3526            0.0000000000
     35478      3726  TIP3      H2             21.5570259209      -21.2492609856       48.5595545159  TIP3      3526            0.0000000000
     35479      3727  TIP3      OH2            22.8375234983      -22.1863720304       47.7925685878  TIP3      3527            0.0000000000
     35480      3727  TIP3      H1             22.8205700802      -23.1569473198       47.8441866703  TIP3      3527            0.0000000000
     35481      3727  TIP3      H2             23.7505025135      -22.0047987174       48.1108788959  TIP3      3527            0.0000000000
     35482      3728  TIP3      OH2            25.2856621872      -21.8730303544       48.7913324822  TIP3      3528            0.0000000000
     35483      3728  TIP3      H1             25.3729977009      -22.8548700282       48.7969837198  TIP3      3528            0.0000000000
     35484      3728  TIP3      H2             25.1489992925      -21.6925650553       49.7242867154  TIP3      3528            0.0000000000
     35485      3729  TIP3      OH2            28.4736419024      -35.4941739751       48.1134164673  TIP3      3529            0.0000000000
     35486      3729  TIP3      H1             27.9119350855      -36.2885657061       48.2684756991  TIP3      3529            0.0000000000
     35487      3729  TIP3      H2             29.1257251938      -35.8724693188       47.4746656647  TIP3      3529            0.0000000000
     35488      3730  TIP3      OH2            33.9714138396      -37.3086016936       48.3132487695  TIP3      3530            0.0000000000
     35489      3730  TIP3      H1             34.4729989196      -37.2867332067       47.4652885504  TIP3      3530            0.0000000000
     35490      3730  TIP3      H2             33.0832513137      -37.0318833294       48.0530306320  TIP3      3530            0.0000000000
     35491      3731  TIP3      OH2            35.3105525463      -37.0899912351       45.9686704968  TIP3      3531            0.0000000000
     35492      3731  TIP3      H1             35.9969080589      -37.7198980982       45.7048380034  TIP3      3531            0.0000000000
     35493      3731  TIP3      H2             35.8088338441      -36.2435275641       46.0004840976  TIP3      3531            0.0000000000
     35494      3732  TIP3      OH2            21.2464632349      -37.1676697996       45.4348529244  TIP3      3532            0.0000000000
     35495      3732  TIP3      H1             20.5134203181      -37.0169318368       44.8142633815  TIP3      3532            0.0000000000
     35496      3732  TIP3      H2             21.2260169290      -38.1550289549       45.4925085659  TIP3      3532            0.0000000000
     35497      3733  TIP3      OH2            20.2238304713      -37.2259610431       41.6984323792  TIP3      3533            0.0000000000
     35498      3733  TIP3      H1             20.2732473218      -36.8729013933       40.7891458938  TIP3      3533            0.0000000000
     35499      3733  TIP3      H2             19.3025650845      -37.0427473924       41.9172680322  TIP3      3533            0.0000000000
     35500      3734  TIP3      OH2            25.7998698968      -37.1831163143       45.6705965652  TIP3      3534            0.0000000000
     35501      3734  TIP3      H1             26.5757885930      -36.8761186834       45.1630825080  TIP3      3534            0.0000000000
     35502      3734  TIP3      H2             26.1915575838      -37.2054978371       46.5775888476  TIP3      3534            0.0000000000
     35503      3735  TIP3      OH2            30.5987233289      -36.7598443697       46.8514597839  TIP3      3535            0.0000000000
     35504      3735  TIP3      H1             31.4415464568      -36.5817111861       46.4235309731  TIP3      3535            0.0000000000
     35505      3735  TIP3      H2             30.7705173744      -37.6163471427       47.2893469093  TIP3      3535            0.0000000000
     35506      3736  TIP3      OH2            32.3628562878      -36.5531930702       42.5835556774  TIP3      3536            0.0000000000
     35507      3736  TIP3      H1             31.4289912416      -36.2652521067       42.5330316861  TIP3      3536            0.0000000000
     35508      3736  TIP3      H2             32.2685113057      -37.4791598409       42.8414844120  TIP3      3536            0.0000000000
     35509      3737  TIP3      OH2            19.9867812289      -21.6845652291       42.5521716951  TIP3      3537            0.0000000000
     35510      3737  TIP3      H1             19.0239581689      -21.5537268787       42.4794907017  TIP3      3537            0.0000000000
     35511      3737  TIP3      H2             20.2903795579      -20.8255653095       42.1954620281  TIP3      3537            0.0000000000
     35512      3738  TIP3      OH2            21.3633420127      -35.8090776327       39.7262803999  TIP3      3538            0.0000000000
     35513      3738  TIP3      H1             21.9629396709      -36.3944528262       39.2133638984  TIP3      3538            0.0000000000
     35514      3738  TIP3      H2             21.8802639712      -35.7044497193       40.5475146021  TIP3      3538            0.0000000000
     35515      3739  TIP3      OH2            26.4340071815      -35.4002436138       42.4900004024  TIP3      3539            0.0000000000
     35516      3739  TIP3      H1             26.9087955548      -36.0385383270       43.0433600405  TIP3      3539            0.0000000000
     35517      3739  TIP3      H2             26.8652008252      -34.5718208405       42.8083990651  TIP3      3539            0.0000000000
     35518      3740  TIP3      OH2            28.7209365098      -20.3517312312       40.8311935759  TIP3      3540            0.0000000000
     35519      3740  TIP3      H1             29.6553032373      -20.3564272160       40.5255446919  TIP3      3540            0.0000000000
     35520      3740  TIP3      H2             28.3749328940      -20.9110018606       40.0905440289  TIP3      3540            0.0000000000
     35521      3741  TIP3      OH2            34.9874598377      -20.9699568895       43.5529456145  TIP3      3541            0.0000000000
     35522      3741  TIP3      H1             34.9424495636      -21.8472165050       43.0989189240  TIP3      3541            0.0000000000
     35523      3741  TIP3      H2             35.0023250491      -20.3536402968       42.7921901546  TIP3      3541            0.0000000000
     35524      3742  TIP3      OH2            21.1556295677      -20.9593003743       39.3700784096  TIP3      3542            0.0000000000
     35525      3742  TIP3      H1             20.9045344559      -20.5704666296       40.2252184401  TIP3      3542            0.0000000000
     35526      3742  TIP3      H2             21.9331257268      -21.5024015956       39.6008007369  TIP3      3542            0.0000000000
     35527      3743  TIP3      OH2            37.1212984959      -31.4986034596       44.7449470656  TIP3      3543            0.0000000000
     35528      3743  TIP3      H1             36.9890561568      -30.5817250232       44.4694191549  TIP3      3543            0.0000000000
     35529      3743  TIP3      H2             36.8771485141      -31.9445419091       43.9220095250  TIP3      3543            0.0000000000
     35530      3744  TIP3      OH2            37.1545266521      -23.9453445380       48.9781845099  TIP3      3544            0.0000000000
     35531      3744  TIP3      H1             38.1328494821      -23.8805658624       48.9573781352  TIP3      3544            0.0000000000
     35532      3744  TIP3      H2             36.9189290000      -23.4685113880       49.7869891715  TIP3      3544            0.0000000000
     35533      3745  TIP3      OH2            36.6065148426      -34.5503629500       46.3392263036  TIP3      3545            0.0000000000
     35534      3745  TIP3      H1             37.4063152814      -34.0474799211       46.6255279529  TIP3      3545            0.0000000000
     35535      3745  TIP3      H2             36.8217616484      -34.6542586957       45.4022283061  TIP3      3545            0.0000000000
     35536      3746  TIP3      OH2            36.7048264981      -19.8770348864       45.2416318128  TIP3      3546            0.0000000000
     35537      3746  TIP3      H1             36.1384623487      -20.3686670139       44.6062373302  TIP3      3546            0.0000000000
     35538      3746  TIP3      H2             36.8273286114      -20.5408070118       45.9569905575  TIP3      3546            0.0000000000
     35539      3747  TIP3      OH2            37.0978412089      -21.3780653979       47.4516559384  TIP3      3547            0.0000000000
     35540      3747  TIP3      H1             36.7420811509      -22.2833517684       47.5527551537  TIP3      3547            0.0000000000
     35541      3747  TIP3      H2             38.0649135985      -21.5319592936       47.4289012371  TIP3      3547            0.0000000000
     35542      3748  TIP3      OH2            38.0467835800      -29.4943141513       49.1608080031  TIP3      3548            0.0000000000
     35543      3748  TIP3      H1             38.3054091016      -29.0898397703       48.3071699034  TIP3      3548            0.0000000000
     35544      3748  TIP3      H2             38.2122081719      -28.7510155909       49.7551366340  TIP3      3548            0.0000000000
     35545      3749  TIP3      OH2            36.6309066801      -32.1272314682       48.8737393708  TIP3      3549            0.0000000000
     35546      3749  TIP3      H1             37.4129316634      -32.6850232378       48.9297764236  TIP3      3549            0.0000000000
     35547      3749  TIP3      H2             37.0023073067      -31.2648714251       49.1252777074  TIP3      3549            0.0000000000
     35548      3750  TIP3      OH2            37.1796615384      -35.3186365166       43.6265233660  TIP3      3550            0.0000000000
     35549      3750  TIP3      H1             36.2062747999      -35.3480204578       43.6760057521  TIP3      3550            0.0000000000
     35550      3750  TIP3      H2             37.3040710240      -35.3136692954       42.6560846326  TIP3      3550            0.0000000000
     35551      3751  TIP3      OH2           -26.3279428066       -9.4300052132       45.5146482101  TIP3      3551            0.0000000000
     35552      3751  TIP3      H1            -26.2822732450       -8.4603347798       45.6247401864  TIP3      3551            0.0000000000
     35553      3751  TIP3      H2            -27.0949085557       -9.4996531904       44.9298517596  TIP3      3551            0.0000000000
     35554      3752  TIP3      OH2           -27.3720945765      -10.4379685377       48.9189322664  TIP3      3552            0.0000000000
     35555      3752  TIP3      H1            -27.4665605320      -10.8567108900       49.7937046130  TIP3      3552            0.0000000000
     35556      3752  TIP3      H2            -28.0570189351      -10.8900825426       48.3988167978  TIP3      3552            0.0000000000
     35557      3753  TIP3      OH2           -24.4157980408       -7.5189928043       47.1975400203  TIP3      3553            0.0000000000
     35558      3753  TIP3      H1            -24.6306798604       -8.3018418569       47.7477986185  TIP3      3553            0.0000000000
     35559      3753  TIP3      H2            -24.0127993733       -6.9145580251       47.8625081209  TIP3      3553            0.0000000000
     35560      3754  TIP3      OH2           -34.5179285165       -6.1484069866       48.6935406493  TIP3      3554            0.0000000000
     35561      3754  TIP3      H1            -34.5986697616       -7.0973053539       48.4096423104  TIP3      3554            0.0000000000
     35562      3754  TIP3      H2            -33.5823329133       -6.1216021280       48.9594260711  TIP3      3554            0.0000000000
     35563      3755  TIP3      OH2           -37.1347069701      -13.0879872247       43.8817587836  TIP3      3555            0.0000000000
     35564      3755  TIP3      H1            -36.9144916493      -12.2957485356       44.3829309136  TIP3      3555            0.0000000000
     35565      3755  TIP3      H2            -38.0300712997      -13.2592688883       44.2349349266  TIP3      3555            0.0000000000
     35566      3756  TIP3      OH2           -37.3218804871      -10.4145762343       46.9545247339  TIP3      3556            0.0000000000
     35567      3756  TIP3      H1            -36.8713386197      -11.2336788193       47.2555454065  TIP3      3556            0.0000000000
     35568      3756  TIP3      H2            -36.6391559117       -9.9922637708       46.4074168749  TIP3      3556            0.0000000000
     35569      3757  TIP3      OH2           -26.7603087368       -1.8641538219       47.6311289564  TIP3      3557            0.0000000000
     35570      3757  TIP3      H1            -26.1928421474       -2.4105012273       47.0395992615  TIP3      3557            0.0000000000
     35571      3757  TIP3      H2            -27.1743791319       -2.5926698494       48.1101703195  TIP3      3557            0.0000000000
     35572      3758  TIP3      OH2           -28.6864346457       -7.7192713970       49.9800517686  TIP3      3558            0.0000000000
     35573      3758  TIP3      H1            -28.2299628765       -8.1923712150       49.2658315770  TIP3      3558            0.0000000000
     35574      3758  TIP3      H2            -28.0087651297       -7.8045976128       50.6659044658  TIP3      3558            0.0000000000
     35575      3759  TIP3      OH2           -25.8880212388      -13.3569568239       49.9015005599  TIP3      3559            0.0000000000
     35576      3759  TIP3      H1            -25.6557901908      -14.3025929859       49.9329818310  TIP3      3559            0.0000000000
     35577      3759  TIP3      H2            -25.9493375703      -13.2244241011       48.9446336248  TIP3      3559            0.0000000000
     35578      3760  TIP3      OH2           -32.4519075497      -15.6161887610       47.2579485464  TIP3      3560            0.0000000000
     35579      3760  TIP3      H1            -32.3706643676      -14.7759471233       46.7544830283  TIP3      3560            0.0000000000
     35580      3760  TIP3      H2            -32.8887715819      -16.1648097406       46.5791477480  TIP3      3560            0.0000000000
     35581      3761  TIP3      OH2           -25.4817790927      -15.1272076717       45.3528463141  TIP3      3561            0.0000000000
     35582      3761  TIP3      H1            -24.9347778521      -15.4993542118       46.0879940461  TIP3      3561            0.0000000000
     35583      3761  TIP3      H2            -24.8257579797      -14.5043248139       45.0094302864  TIP3      3561            0.0000000000
     35584      3762  TIP3      OH2           -35.9698970731      -12.7701121159       47.4106609172  TIP3      3562            0.0000000000
     35585      3762  TIP3      H1            -35.4685860126      -13.4629378592       47.8879009598  TIP3      3562            0.0000000000
     35586      3762  TIP3      H2            -35.8528664121      -13.1131758882       46.5050416009  TIP3      3562            0.0000000000
     35587      3763  TIP3      OH2           -31.5502796477      -11.4926560435       47.1329927756  TIP3      3563            0.0000000000
     35588      3763  TIP3      H1            -30.7802105982      -11.9389168584       47.5139311950  TIP3      3563            0.0000000000
     35589      3763  TIP3      H2            -31.8995075314      -12.2211687128       46.5686162737  TIP3      3563            0.0000000000
     35590      3764  TIP3      OH2           -26.9447193980       -7.0075268080       44.3076075517  TIP3      3564            0.0000000000
     35591      3764  TIP3      H1            -27.1627845736       -7.0192863031       43.3577453527  TIP3      3564            0.0000000000
     35592      3764  TIP3      H2            -27.1637863969       -6.0697195155       44.5166932663  TIP3      3564            0.0000000000
     35593      3765  TIP3      OH2           -23.7026519673      -15.7615564507       47.1476157577  TIP3      3565            0.0000000000
     35594      3765  TIP3      H1            -24.3089866277      -15.9908584394       47.8938295406  TIP3      3565            0.0000000000
     35595      3765  TIP3      H2            -22.8445417801      -16.0181582733       47.5072653582  TIP3      3565            0.0000000000
     35596      3766  TIP3      OH2           -34.4905745907      -14.4756589554       48.8432377582  TIP3      3566            0.0000000000
     35597      3766  TIP3      H1            -34.0670936698      -13.7889157400       49.3660603304  TIP3      3566            0.0000000000
     35598      3766  TIP3      H2            -33.7541606987      -14.8731913308       48.3362806129  TIP3      3566            0.0000000000
     35599      3767  TIP3      OH2           -37.2027292688       -7.3138074187       42.7204841645  TIP3      3567            0.0000000000
     35600      3767  TIP3      H1            -37.2391800915       -6.7616795707       41.9077761837  TIP3      3567            0.0000000000
     35601      3767  TIP3      H2            -36.9121937764       -6.6506935768       43.3860100344  TIP3      3567            0.0000000000
     35602      3768  TIP3      OH2           -23.2597726368       -5.8759563638       48.9086299528  TIP3      3568            0.0000000000
     35603      3768  TIP3      H1            -23.5164510481       -6.4900288265       49.6203958551  TIP3      3568            0.0000000000
     35604      3768  TIP3      H2            -22.8375716497       -5.1901651662       49.4402991658  TIP3      3568            0.0000000000
     35605      3769  TIP3      OH2           -29.8541845035      -18.7650736847       48.4319892425  TIP3      3569            0.0000000000
     35606      3769  TIP3      H1            -29.6208191085      -19.7048369061       48.4692683388  TIP3      3569            0.0000000000
     35607      3769  TIP3      H2            -30.8223925981      -18.7495273438       48.6442027717  TIP3      3569            0.0000000000
     35608      3770  TIP3      OH2           -25.3373566529       -3.5278659873       46.1781443012  TIP3      3570            0.0000000000
     35609      3770  TIP3      H1            -24.8767301944       -4.3453656243       45.9121242131  TIP3      3570            0.0000000000
     35610      3770  TIP3      H2            -24.6155188357       -2.8916466058       45.9701415830  TIP3      3570            0.0000000000
     35611      3771  TIP3      OH2           -23.7182759786       -5.6611327780       45.0971389570  TIP3      3571            0.0000000000
     35612      3771  TIP3      H1            -24.0557411539       -6.2939211289       44.4356944710  TIP3      3571            0.0000000000
     35613      3771  TIP3      H2            -23.7584227034       -6.2235347504       45.8961287602  TIP3      3571            0.0000000000
     35614      3772  TIP3      OH2           -27.7518483281      -10.2430637166       42.9516177004  TIP3      3572            0.0000000000
     35615      3772  TIP3      H1            -28.1695525782       -9.3771461958       42.7681385631  TIP3      3572            0.0000000000
     35616      3772  TIP3      H2            -26.8503645917      -10.1408431884       42.5828588706  TIP3      3572            0.0000000000
     35617      3773  TIP3      OH2           -27.4452317110      -11.3451964419       39.8508918354  TIP3      3573            0.0000000000
     35618      3773  TIP3      H1            -26.9660571236      -11.0027696170       40.6356811748  TIP3      3573            0.0000000000
     35619      3773  TIP3      H2            -27.1789253607      -12.2742231364       39.8579306113  TIP3      3573            0.0000000000
     35620      3774  TIP3      OH2           -23.8946532415      -10.1987350402       44.0329737955  TIP3      3574            0.0000000000
     35621      3774  TIP3      H1            -24.5468538736      -10.0202958162       44.7424554108  TIP3      3574            0.0000000000
     35622      3774  TIP3      H2            -23.2025533802      -10.7242120854       44.4952199590  TIP3      3574            0.0000000000
     35623      3775  TIP3      OH2           -32.6511943646       -9.4764307839       45.8593917272  TIP3      3575            0.0000000000
     35624      3775  TIP3      H1            -33.0982259019       -9.9060300018       45.1016474064  TIP3      3575            0.0000000000
     35625      3775  TIP3      H2            -32.1588985822      -10.2133427609       46.2842139118  TIP3      3575            0.0000000000
     35626      3776  TIP3      OH2           -31.0690687624       -5.7572729610       48.5268897998  TIP3      3576            0.0000000000
     35627      3776  TIP3      H1            -31.2216911378       -6.0867655669       47.6314562115  TIP3      3576            0.0000000000
     35628      3776  TIP3      H2            -30.4274106999       -6.3899862299       48.8868439184  TIP3      3576            0.0000000000
     35629      3777  TIP3      OH2           -32.7018186591      -10.6350317839       49.4095379365  TIP3      3577            0.0000000000
     35630      3777  TIP3      H1            -32.3607241177      -10.9823055678       48.5610340537  TIP3      3577            0.0000000000
     35631      3777  TIP3      H2            -31.8854636475      -10.3919638699       49.8735533445  TIP3      3577            0.0000000000
     35632      3778  TIP3      OH2           -25.3713963363      -10.4354862495       41.7043352519  TIP3      3578            0.0000000000
     35633      3778  TIP3      H1            -24.7469735393      -10.2797399352       42.4509422713  TIP3      3578            0.0000000000
     35634      3778  TIP3      H2            -24.8463115185      -10.1102015908       40.9275623733  TIP3      3578            0.0000000000
     35635      3779  TIP3      OH2           -27.6293800129       -4.4860833637       44.7006150728  TIP3      3579            0.0000000000
     35636      3779  TIP3      H1            -27.1057389219       -4.1689971338       45.4526607920  TIP3      3579            0.0000000000
     35637      3779  TIP3      H2            -28.1401147200       -3.6971865775       44.4595369776  TIP3      3579            0.0000000000
     35638      3780  TIP3      OH2           -21.5040503780      -19.3374002938       41.9434366134  TIP3      3580            0.0000000000
     35639      3780  TIP3      H1            -22.4471843172      -19.2220594562       42.1846433375  TIP3      3580            0.0000000000
     35640      3780  TIP3      H2            -21.2107394952      -18.4375531388       41.6910274615  TIP3      3580            0.0000000000
     35641      3781  TIP3      OH2           -33.9233885855      -10.5853998398       43.5430242592  TIP3      3581            0.0000000000
     35642      3781  TIP3      H1            -34.0284349075       -9.7348095824       43.0540175271  TIP3      3581            0.0000000000
     35643      3781  TIP3      H2            -34.2343325313      -11.2167662295       42.8909798444  TIP3      3581            0.0000000000
     35644      3782  TIP3      OH2           -20.4138592674       -4.9069619327       40.0247280977  TIP3      3582            0.0000000000
     35645      3782  TIP3      H1            -20.2161762764       -3.9705996604       40.2433766980  TIP3      3582            0.0000000000
     35646      3782  TIP3      H2            -19.6117442783       -5.3367927374       40.3786810828  TIP3      3582            0.0000000000
     35647      3783  TIP3      OH2           -36.9900677470       -4.8533985480       49.0221417454  TIP3      3583            0.0000000000
     35648      3783  TIP3      H1            -36.2750412830       -5.5146828156       48.9465839739  TIP3      3583            0.0000000000
     35649      3783  TIP3      H2            -36.6926156471       -4.3860056067       49.8115127180  TIP3      3583            0.0000000000
     35650      3784  TIP3      OH2           -27.8619141659       -1.3868650764       43.5805063563  TIP3      3584            0.0000000000
     35651      3784  TIP3      H1            -27.8827615430       -1.2956335114       42.6022156581  TIP3      3584            0.0000000000
     35652      3784  TIP3      H2            -28.1565308534       -0.4838083692       43.8368392160  TIP3      3584            0.0000000000
     35653      3785  TIP3      OH2           -34.3165782903       -2.6670758969       45.3255949151  TIP3      3585            0.0000000000
     35654      3785  TIP3      H1            -34.1518854279       -2.9769023922       46.2464963475  TIP3      3585            0.0000000000
     35655      3785  TIP3      H2            -35.2765877801       -2.7632418870       45.2464494313  TIP3      3585            0.0000000000
     35656      3786  TIP3      OH2           -24.8632738557       -2.0683732524       40.4538885458  TIP3      3586            0.0000000000
     35657      3786  TIP3      H1            -24.3383339785       -2.8333032934       40.1093646934  TIP3      3586            0.0000000000
     35658      3786  TIP3      H2            -24.8983601068       -2.2651105218       41.4190292855  TIP3      3586            0.0000000000
     35659      3787  TIP3      OH2           -25.3009170130       -2.1927841477       43.1444099321  TIP3      3587            0.0000000000
     35660      3787  TIP3      H1            -26.2371517728       -1.9857822673       43.3397025650  TIP3      3587            0.0000000000
     35661      3787  TIP3      H2            -25.1187158926       -2.8838255795       43.8037356539  TIP3      3587            0.0000000000
     35662      3788  TIP3      OH2           -32.5005792056      -18.2206529730       48.6546905556  TIP3      3588            0.0000000000
     35663      3788  TIP3      H1            -33.3916233753      -17.9432895204       48.3555648418  TIP3      3588            0.0000000000
     35664      3788  TIP3      H2            -32.2273757162      -17.4553205670       49.2014260265  TIP3      3588            0.0000000000
     35665      3789  TIP3      OH2           -23.7709105246       -9.4470629952       39.8255791688  TIP3      3589            0.0000000000
     35666      3789  TIP3      H1            -23.9642575773       -9.2922334116       38.8761322645  TIP3      3589            0.0000000000
     35667      3789  TIP3      H2            -22.8134624256       -9.2686750953       39.8479389701  TIP3      3589            0.0000000000
     35668      3790  TIP3      OH2           -28.1447829371      -15.9066976726       39.8976307503  TIP3      3590            0.0000000000
     35669      3790  TIP3      H1            -28.5603596858      -15.9296721241       40.7742752584  TIP3      3590            0.0000000000
     35670      3790  TIP3      H2            -28.5761232486      -16.6881757511       39.5136261664  TIP3      3590            0.0000000000
     35671      3791  TIP3      OH2           -32.4008516169      -13.4749921804       45.6488841797  TIP3      3591            0.0000000000
     35672      3791  TIP3      H1            -33.3595508870      -13.5494182959       45.4368854519  TIP3      3591            0.0000000000
     35673      3791  TIP3      H2            -32.0136067738      -13.5031025616       44.7300511855  TIP3      3591            0.0000000000
     35674      3792  TIP3      OH2           -26.7825454115      -12.4371245351       44.0717178752  TIP3      3592            0.0000000000
     35675      3792  TIP3      H1            -27.2179104347      -11.6689844057       43.6352243239  TIP3      3592            0.0000000000
     35676      3792  TIP3      H2            -26.2173164177      -12.7459676056       43.3448250243  TIP3      3592            0.0000000000
     35677      3793  TIP3      OH2           -26.1288034374      -12.8859807577       47.1157489504  TIP3      3593            0.0000000000
     35678      3793  TIP3      H1            -26.3520567857      -12.1328850227       46.5328776328  TIP3      3593            0.0000000000
     35679      3793  TIP3      H2            -26.0901677088      -13.6188212064       46.4744810655  TIP3      3593            0.0000000000
     35680      3794  TIP3      OH2           -31.8131126411      -15.5953562866       39.3515735579  TIP3      3594            0.0000000000
     35681      3794  TIP3      H1            -32.3489632774      -16.1806184516       39.9361422095  TIP3      3594            0.0000000000
     35682      3794  TIP3      H2            -32.4838249000      -15.1337090541       38.8391260656  TIP3      3594            0.0000000000
     35683      3795  TIP3      OH2           -37.5536426676      -15.9217259383       46.4393132048  TIP3      3595            0.0000000000
     35684      3795  TIP3      H1            -37.1574236227      -15.8935474369       47.3402846174  TIP3      3595            0.0000000000
     35685      3795  TIP3      H2            -37.1732573387      -16.7490235162       46.1128530950  TIP3      3595            0.0000000000
     35686      3796  TIP3      OH2           -37.2809106381      -14.9817082224       41.5815456582  TIP3      3596            0.0000000000
     35687      3796  TIP3      H1            -36.6476563017      -14.6731893897       40.9018865858  TIP3      3596            0.0000000000
     35688      3796  TIP3      H2            -37.3487962613      -14.1813019979       42.1326851427  TIP3      3596            0.0000000000
     35689      3797  TIP3      OH2           -29.6196507290      -15.5664939033       46.2363297681  TIP3      3597            0.0000000000
     35690      3797  TIP3      H1            -30.4744392315      -15.6946557453       46.6769098339  TIP3      3597            0.0000000000
     35691      3797  TIP3      H2            -29.0097203717      -15.9892218045       46.8855960306  TIP3      3597            0.0000000000
     35692      3798  TIP3      OH2           -35.0174133268      -14.0154168224       45.1865094174  TIP3      3598            0.0000000000
     35693      3798  TIP3      H1            -35.7044721986      -13.9306234723       44.4927192766  TIP3      3598            0.0000000000
     35694      3798  TIP3      H2            -34.9287301096      -14.9978543406       45.1721269154  TIP3      3598            0.0000000000
     35695      3799  TIP3      OH2           -31.4612331008      -13.7583809548       43.1082087551  TIP3      3599            0.0000000000
     35696      3799  TIP3      H1            -30.5151316031      -13.8534550434       42.8981449041  TIP3      3599            0.0000000000
     35697      3799  TIP3      H2            -31.8299162336      -13.2250956828       42.3823972165  TIP3      3599            0.0000000000
     35698      3800  TIP3      OH2           -25.4856688664      -15.9716183383       49.1536410079  TIP3      3600            0.0000000000
     35699      3800  TIP3      H1            -25.4565289949      -16.2158066196       50.0950656530  TIP3      3600            0.0000000000
     35700      3800  TIP3      H2            -26.4240479824      -16.1454071203       48.9366682829  TIP3      3600            0.0000000000
     35701      3801  TIP3      OH2           -32.6895695226      -12.5126465088       40.4572613192  TIP3      3601            0.0000000000
     35702      3801  TIP3      H1            -33.1395003707      -13.0508258066       39.7938282372  TIP3      3601            0.0000000000
     35703      3801  TIP3      H2            -31.8561585786      -12.2865222037       39.9978806551  TIP3      3601            0.0000000000
     35704      3802  TIP3      OH2           -28.8747482006      -12.8386291417       48.4620179222  TIP3      3602            0.0000000000
     35705      3802  TIP3      H1            -28.4981006049      -13.0326592436       47.5896690018  TIP3      3602            0.0000000000
     35706      3802  TIP3      H2            -28.2656298779      -13.3425062120       49.0309608963  TIP3      3602            0.0000000000
     35707      3803  TIP3      OH2           -34.3255247537      -16.5204605470       45.0442391439  TIP3      3603            0.0000000000
     35708      3803  TIP3      H1            -34.9886660664      -17.2241940739       45.2538783964  TIP3      3603            0.0000000000
     35709      3803  TIP3      H2            -33.9338432619      -16.9438950821       44.2694829776  TIP3      3603            0.0000000000
     35710      3804  TIP3      OH2           -29.3453500257       -8.0735269476       42.7101133116  TIP3      3604            0.0000000000
     35711      3804  TIP3      H1            -30.0706731840       -8.5652168959       42.2691069099  TIP3      3604            0.0000000000
     35712      3804  TIP3      H2            -29.8047115627       -7.8274469110       43.5468814489  TIP3      3604            0.0000000000
     35713      3805  TIP3      OH2           -25.7584377023      -15.4376735927       40.9827867381  TIP3      3605            0.0000000000
     35714      3805  TIP3      H1            -26.5899550080      -15.3752444384       40.4691036718  TIP3      3605            0.0000000000
     35715      3805  TIP3      H2            -25.5157530481      -14.4911438332       41.0815012493  TIP3      3605            0.0000000000
     35716      3806  TIP3      OH2           -25.1025039700      -13.1230494151       41.9366217745  TIP3      3606            0.0000000000
     35717      3806  TIP3      H1            -24.4064010963      -13.4317368008       42.5437658919  TIP3      3606            0.0000000000
     35718      3806  TIP3      H2            -24.8093007670      -12.2363819076       41.6715586441  TIP3      3606            0.0000000000
     35719      3807  TIP3      OH2           -34.2528223470       -8.6461568638       47.8194630069  TIP3      3607            0.0000000000
     35720      3807  TIP3      H1            -33.7487680421       -8.8454701563       47.0017993037  TIP3      3607            0.0000000000
     35721      3807  TIP3      H2            -33.7065285385       -9.1041272252       48.4835971370  TIP3      3607            0.0000000000
     35722      3808  TIP3      OH2           -27.5165895631       -6.6672937929       41.4272174017  TIP3      3608            0.0000000000
     35723      3808  TIP3      H1            -27.8458576664       -5.7717510439       41.6770809025  TIP3      3608            0.0000000000
     35724      3808  TIP3      H2            -28.1953320938       -7.2466811062       41.8393901725  TIP3      3608            0.0000000000
     35725      3809  TIP3      OH2           -20.1869218132      -13.4648135237       41.9546111811  TIP3      3609            0.0000000000
     35726      3809  TIP3      H1            -20.7588836843      -13.5320658076       41.1573256476  TIP3      3609            0.0000000000
     35727      3809  TIP3      H2            -19.9363293251      -12.5212357883       41.9311489527  TIP3      3609            0.0000000000
     35728      3810  TIP3      OH2           -21.9456231404       -4.6449584031       42.3055290457  TIP3      3610            0.0000000000
     35729      3810  TIP3      H1            -22.1333994836       -5.3051929357       42.9828097708  TIP3      3610            0.0000000000
     35730      3810  TIP3      H2            -21.4807141187       -5.1310989468       41.5989638845  TIP3      3610            0.0000000000
     35731      3811  TIP3      OH2           -24.6739249903       -9.7273142846       48.9959166796  TIP3      3611            0.0000000000
     35732      3811  TIP3      H1            -25.6154299879      -10.0039252700       48.9019226337  TIP3      3611            0.0000000000
     35733      3811  TIP3      H2            -24.1973449068      -10.4180051767       48.4707779559  TIP3      3611            0.0000000000
     35734      3812  TIP3      OH2           -32.0883272439       -5.2665715294       45.6297306922  TIP3      3612            0.0000000000
     35735      3812  TIP3      H1            -31.8317742975       -4.4160519571       45.1998818922  TIP3      3612            0.0000000000
     35736      3812  TIP3      H2            -32.9961540607       -5.3367066883       45.3134613816  TIP3      3612            0.0000000000
     35737      3813  TIP3      OH2           -35.9915582015      -10.3560117210       40.3689154797  TIP3      3613            0.0000000000
     35738      3813  TIP3      H1            -35.4541637001       -9.6141798228       40.7316816192  TIP3      3613            0.0000000000
     35739      3813  TIP3      H2            -36.8289128812      -10.2441437317       40.8358690285  TIP3      3613            0.0000000000
     35740      3814  TIP3      OH2           -30.8415779844       -7.6610835540       45.0161158803  TIP3      3614            0.0000000000
     35741      3814  TIP3      H1            -31.2987375145       -6.8405603937       45.2923765566  TIP3      3614            0.0000000000
     35742      3814  TIP3      H2            -31.3136025609       -8.3511362888       45.5271446879  TIP3      3614            0.0000000000
     35743      3815  TIP3      OH2           -31.7584162475       -2.8853021044       44.4811375138  TIP3      3615            0.0000000000
     35744      3815  TIP3      H1            -32.7047575598       -2.6994253039       44.6736283950  TIP3      3615            0.0000000000
     35745      3815  TIP3      H2            -31.3551859082       -2.0782882109       44.8531854534  TIP3      3615            0.0000000000
     35746      3816  TIP3      OH2           -24.1389128352       -6.3428986672       40.1944988977  TIP3      3616            0.0000000000
     35747      3816  TIP3      H1            -24.0079347664       -6.7523745310       41.0711654040  TIP3      3616            0.0000000000
     35748      3816  TIP3      H2            -25.0505298591       -6.6444985627       40.0511114661  TIP3      3616            0.0000000000
     35749      3817  TIP3      OH2           -19.8998409259       -2.1055099117       40.6429631146  TIP3      3617            0.0000000000
     35750      3817  TIP3      H1            -19.4474019018       -1.4345133809       40.1106613115  TIP3      3617            0.0000000000
     35751      3817  TIP3      H2            -20.5859553286       -1.5434167300       41.0748674431  TIP3      3617            0.0000000000
     35752      3818  TIP3      OH2           -23.3245654192       -7.8253960575       42.5078606297  TIP3      3618            0.0000000000
     35753      3818  TIP3      H1            -23.5451972208       -8.6874531283       42.9023087494  TIP3      3618            0.0000000000
     35754      3818  TIP3      H2            -22.3569624629       -7.9092833230       42.3872320645  TIP3      3618            0.0000000000
     35755      3819  TIP3      OH2           -30.1253318017       -5.0498392953       38.8585425806  TIP3      3619            0.0000000000
     35756      3819  TIP3      H1            -30.1574677263       -5.6176619760       38.0743353296  TIP3      3619            0.0000000000
     35757      3819  TIP3      H2            -30.7179429944       -5.5417770655       39.4537092185  TIP3      3619            0.0000000000
     35758      3820  TIP3      OH2           -31.5501697576       -5.9784037889       41.2036509728  TIP3      3620            0.0000000000
     35759      3820  TIP3      H1            -30.7813688124       -6.3541433339       41.6525424945  TIP3      3620            0.0000000000
     35760      3820  TIP3      H2            -31.4539789639       -5.0320436940       41.4805196243  TIP3      3620            0.0000000000
     35761      3821  TIP3      OH2           -34.7292107949       -8.4587383135       41.9077655647  TIP3      3621            0.0000000000
     35762      3821  TIP3      H1            -35.5368047862       -8.0990398404       42.3370841198  TIP3      3621            0.0000000000
     35763      3821  TIP3      H2            -34.4419016475       -7.7378692386       41.3235398579  TIP3      3621            0.0000000000
     35764      3822  TIP3      OH2           -26.2245276996      -16.7175781876       43.2545356067  TIP3      3622            0.0000000000
     35765      3822  TIP3      H1            -26.0916902950      -16.1378039776       42.4672703102  TIP3      3622            0.0000000000
     35766      3822  TIP3      H2            -25.8381817501      -16.1776704966       43.9682872304  TIP3      3622            0.0000000000
     35767      3823  TIP3      OH2           -28.3921821937       -4.1307490875       41.8435653683  TIP3      3623            0.0000000000
     35768      3823  TIP3      H1            -29.2804339004       -3.7840736795       42.0623195432  TIP3      3623            0.0000000000
     35769      3823  TIP3      H2            -27.9006080027       -3.3095014155       41.6818197955  TIP3      3623            0.0000000000
     35770      3824  TIP3      OH2           -28.8849973298      -14.5889556937       43.8193189141  TIP3      3624            0.0000000000
     35771      3824  TIP3      H1            -28.3094235146      -13.8234960385       43.9995934440  TIP3      3624            0.0000000000
     35772      3824  TIP3      H2            -29.2223359271      -14.8471996490       44.7103661843  TIP3      3624            0.0000000000
     35773      3825  TIP3      OH2           -28.4020304107      -17.7580342927       44.4449486584  TIP3      3625            0.0000000000
     35774      3825  TIP3      H1            -28.6661494697      -16.9994503925       44.9966021562  TIP3      3625            0.0000000000
     35775      3825  TIP3      H2            -27.6064805612      -17.3761233771       43.9950283899  TIP3      3625            0.0000000000
     35776      3826  TIP3      OH2           -31.0775472407       -3.4885582876       41.8541761634  TIP3      3626            0.0000000000
     35777      3826  TIP3      H1            -30.9123622896       -2.6496517103       41.3514543654  TIP3      3626            0.0000000000
     35778      3826  TIP3      H2            -31.4690970092       -3.0834957358       42.6574692475  TIP3      3626            0.0000000000
     35779      3827  TIP3      OH2           -32.7776469151      -16.5902915003       41.6540993995  TIP3      3627            0.0000000000
     35780      3827  TIP3      H1            -32.7038403574      -15.7544918498       42.1485004392  TIP3      3627            0.0000000000
     35781      3827  TIP3      H2            -31.8685847223      -16.9289261080       41.7344149536  TIP3      3627            0.0000000000
     35782      3828  TIP3      OH2           -23.5930187372      -11.6969809908       47.5665761035  TIP3      3628            0.0000000000
     35783      3828  TIP3      H1            -24.3980187443      -12.2325448254       47.6828469852  TIP3      3628            0.0000000000
     35784      3828  TIP3      H2            -22.9770618958      -12.2257589828       48.1355351722  TIP3      3628            0.0000000000
     35785      3829  TIP3      OH2           -34.1407756180       -6.0327761097       40.3072877318  TIP3      3629            0.0000000000
     35786      3829  TIP3      H1            -33.2532520948       -5.9029422282       40.7216376815  TIP3      3629            0.0000000000
     35787      3829  TIP3      H2            -33.9014043722       -6.6187151075       39.5733243625  TIP3      3629            0.0000000000
     35788      3830  TIP3      OH2           -36.0119853644      -13.2368665099       39.8820581051  TIP3      3630            0.0000000000
     35789      3830  TIP3      H1            -35.7695522788      -12.3225730624       40.1307569838  TIP3      3630            0.0000000000
     35790      3830  TIP3      H2            -36.7247673193      -13.1103677180       39.2408075791  TIP3      3630            0.0000000000
     35791      3831  TIP3      OH2           -22.4629450888       -2.2370794523       49.6955705537  TIP3      3631            0.0000000000
     35792      3831  TIP3      H1            -22.3395964909       -1.5027244166       49.0552255092  TIP3      3631            0.0000000000
     35793      3831  TIP3      H2            -21.5785284836       -2.3309767085       50.0751163230  TIP3      3631            0.0000000000
     35794      3832  TIP3      OH2           -35.2060322663      -18.3192727051       48.0766560818  TIP3      3632            0.0000000000
     35795      3832  TIP3      H1            -35.2179446603      -18.5511392717       47.1222653297  TIP3      3632            0.0000000000
     35796      3832  TIP3      H2            -35.3096305263      -19.2149248901       48.4582961648  TIP3      3632            0.0000000000
     35797      3833  TIP3      OH2           -36.3110539307       -5.1107164013       44.0270486070  TIP3      3633            0.0000000000
     35798      3833  TIP3      H1            -37.0028396121       -4.5965989146       44.4412844921  TIP3      3633            0.0000000000
     35799      3833  TIP3      H2            -35.8378559838       -4.4127096534       43.5359782613  TIP3      3633            0.0000000000
     35800      3834  TIP3      OH2           -27.9969421570       -3.1133971238       38.8179936599  TIP3      3634            0.0000000000
     35801      3834  TIP3      H1            -28.5453708747       -3.9070683904       38.9939606210  TIP3      3634            0.0000000000
     35802      3834  TIP3      H2            -27.2049587374       -3.5224222549       38.4012500065  TIP3      3634            0.0000000000
     35803      3835  TIP3      OH2           -23.4646332522       -3.9579582964       38.9832560337  TIP3      3635            0.0000000000
     35804      3835  TIP3      H1            -23.4412384899       -4.7807137953       39.5216872955  TIP3      3635            0.0000000000
     35805      3835  TIP3      H2            -22.6345416734       -4.0306835510       38.4708785945  TIP3      3635            0.0000000000
     35806      3836  TIP3      OH2           -32.6726066252       -8.0053923738       38.8235807641  TIP3      3636            0.0000000000
     35807      3836  TIP3      H1            -32.2637860168       -8.2311410594       39.6761826584  TIP3      3636            0.0000000000
     35808      3836  TIP3      H2            -31.8934034125       -8.1222065452       38.2230985776  TIP3      3636            0.0000000000
     35809      3837  TIP3      OH2           -27.0807922838       -6.5855433620       38.5776262954  TIP3      3637            0.0000000000
     35810      3837  TIP3      H1            -27.4215013373       -6.7047044562       39.4901791595  TIP3      3637            0.0000000000
     35811      3837  TIP3      H2            -27.0792788771       -7.5274705276       38.2705473602  TIP3      3637            0.0000000000
     35812      3838  TIP3      OH2           -31.3865257379       -9.7227557262       41.3612122678  TIP3      3638            0.0000000000
     35813      3838  TIP3      H1            -31.9378125308      -10.3529276835       41.8373147008  TIP3      3638            0.0000000000
     35814      3838  TIP3      H2            -30.9820374487      -10.3319017685       40.7113927156  TIP3      3638            0.0000000000
     35815      3839  TIP3      OH2           -30.2620295446      -11.4600174119       39.3826922922  TIP3      3639            0.0000000000
     35816      3839  TIP3      H1            -30.2040587329      -11.1463575539       38.4555052724  TIP3      3639            0.0000000000
     35817      3839  TIP3      H2            -29.3078452419      -11.4749968669       39.6161429362  TIP3      3639            0.0000000000
     35818      3840  TIP3      OH2           -21.0028592618       -9.4219972737       38.8496830806  TIP3      3640            0.0000000000
     35819      3840  TIP3      H1            -21.2251401721       -9.7189325496       37.9377958318  TIP3      3640            0.0000000000
     35820      3840  TIP3      H2            -21.1704889346       -8.4410942399       38.7793283358  TIP3      3640            0.0000000000
     35821      3841  TIP3      OH2           -30.4392742345       -1.1261543533       40.9893346953  TIP3      3641            0.0000000000
     35822      3841  TIP3      H1            -29.4744441264       -0.9849559971       40.9509093526  TIP3      3641            0.0000000000
     35823      3841  TIP3      H2            -30.7578575614       -0.4492378917       40.3721746708  TIP3      3641            0.0000000000
     35824      3842  TIP3      OH2           -36.7726196310       -5.9916767410       40.4333065438  TIP3      3642            0.0000000000
     35825      3842  TIP3      H1            -35.7919454941       -5.9027473550       40.4608224891  TIP3      3642            0.0000000000
     35826      3842  TIP3      H2            -36.8733285561       -6.5045885497       39.6136956831  TIP3      3642            0.0000000000
     35827      3843  TIP3      OH2           -37.4799516804       -1.1508345215       45.0670134789  TIP3      3643            0.0000000000
     35828      3843  TIP3      H1            -38.4419567884       -0.9888749542       45.1235976642  TIP3      3643            0.0000000000
     35829      3843  TIP3      H2            -37.3550522092       -1.7526837110       45.8231514852  TIP3      3643            0.0000000000
     35830      3844  TIP3      OH2           -36.9555674547       -2.9697782067       47.1230240791  TIP3      3644            0.0000000000
     35831      3844  TIP3      H1            -36.9213188266       -3.8367111644       47.5987747702  TIP3      3644            0.0000000000
     35832      3844  TIP3      H2            -36.4703473488       -2.4204741711       47.7782010751  TIP3      3644            0.0000000000
     35833      3845  TIP3      OH2           -20.6329232306       -8.3504680759       42.6028183354  TIP3      3645            0.0000000000
     35834      3845  TIP3      H1            -19.7645937880       -7.9341667268       42.7782192401  TIP3      3645            0.0000000000
     35835      3845  TIP3      H2            -20.6634133865       -8.9889576501       43.3520169773  TIP3      3645            0.0000000000
     35836      3846  TIP3      OH2           -20.3942990116      -10.0446188342       44.7818939152  TIP3      3646            0.0000000000
     35837      3846  TIP3      H1            -21.1172020267      -10.4900141838       45.2676249525  TIP3      3646            0.0000000000
     35838      3846  TIP3      H2            -19.6272463579      -10.2004930247       45.3664469596  TIP3      3646            0.0000000000
     35839      3847  TIP3      OH2           -19.5723057506       -7.2257710613       49.5727261796  TIP3      3647            0.0000000000
     35840      3847  TIP3      H1            -19.2007582890       -7.9718640967       49.0696906766  TIP3      3647            0.0000000000
     35841      3847  TIP3      H2            -20.1472184711       -6.7699413070       48.9340075865  TIP3      3647            0.0000000000
     35842      3848  TIP3      OH2           -19.7299725068      -10.5647356522       41.0149256823  TIP3      3648            0.0000000000
     35843      3848  TIP3      H1            -20.2992170302      -10.3309225494       40.2493973596  TIP3      3648            0.0000000000
     35844      3848  TIP3      H2            -19.9770229538       -9.8429141705       41.6265051559  TIP3      3648            0.0000000000
     35845      3849  TIP3      OH2           -21.7834799787      -13.3634450922       39.5195244772  TIP3      3649            0.0000000000
     35846      3849  TIP3      H1            -21.5544674853      -12.7641241095       38.7935125152  TIP3      3649            0.0000000000
     35847      3849  TIP3      H2            -21.9704001512      -14.1965013937       39.0413909199  TIP3      3649            0.0000000000
     35848      3850  TIP3      OH2           -22.2965072510      -11.9707115966       45.2848063155  TIP3      3650            0.0000000000
     35849      3850  TIP3      H1            -22.5997011177      -12.8266188015       44.9260138707  TIP3      3650            0.0000000000
     35850      3850  TIP3      H2            -22.6940320654      -11.9558276659       46.1899539460  TIP3      3650            0.0000000000
     35851      3851  TIP3      OH2           -36.4504473691       -8.8309310038       49.5295950368  TIP3      3651            0.0000000000
     35852      3851  TIP3      H1            -36.4540252593       -9.1704705864       48.6226338491  TIP3      3651            0.0000000000
     35853      3851  TIP3      H2            -35.7627504212       -9.4141030072       49.8948580749  TIP3      3651            0.0000000000
     35854      3852  TIP3      OH2           -22.2226548728      -15.9648858008       38.6023349241  TIP3      3652            0.0000000000
     35855      3852  TIP3      H1            -21.8504947871      -16.3195754069       39.4347301371  TIP3      3652            0.0000000000
     35856      3852  TIP3      H2            -23.1506696180      -16.2202433870       38.6267275294  TIP3      3652            0.0000000000
     35857      3853  TIP3      OH2           -23.0272050853      -13.9973533351       43.6250380799  TIP3      3653            0.0000000000
     35858      3853  TIP3      H1            -22.8416292713      -14.9331636280       43.8524012136  TIP3      3653            0.0000000000
     35859      3853  TIP3      H2            -22.1681105950      -13.7868174314       43.2270387470  TIP3      3653            0.0000000000
     35860      3854  TIP3      OH2           -22.0709635479      -13.3688879493       48.8497540416  TIP3      3654            0.0000000000
     35861      3854  TIP3      H1            -21.1068376180      -13.4710634487       48.9731588263  TIP3      3654            0.0000000000
     35862      3854  TIP3      H2            -22.3340872136      -14.2858508570       49.1134652931  TIP3      3654            0.0000000000
     35863      3855  TIP3      OH2           -22.1724606053      -16.6176632924       43.7984589607  TIP3      3655            0.0000000000
     35864      3855  TIP3      H1            -21.7769141086      -17.0886073217       44.5595108496  TIP3      3655            0.0000000000
     35865      3855  TIP3      H2            -22.7641796831      -17.3193653923       43.4714144906  TIP3      3655            0.0000000000
     35866      3856  TIP3      OH2           -36.7719909379      -16.1070295537       49.0136298285  TIP3      3656            0.0000000000
     35867      3856  TIP3      H1            -36.3819477399      -16.9997372226       48.9803913559  TIP3      3656            0.0000000000
     35868      3856  TIP3      H2            -36.0157884164      -15.5762024639       49.3515023862  TIP3      3656            0.0000000000
     35869      3857  TIP3      OH2           -37.3664793484      -13.0771717145       50.0005149763  TIP3      3657            0.0000000000
     35870      3857  TIP3      H1            -37.0618825493      -13.2117688231       49.0918313112  TIP3      3657            0.0000000000
     35871      3857  TIP3      H2            -37.6614306873      -12.1502153174       49.9363921127  TIP3      3657            0.0000000000
     35872      3858  TIP3      OH2           -20.2148862725      -16.8693079557       40.4912220090  TIP3      3658            0.0000000000
     35873      3858  TIP3      H1            -19.8734340221      -17.4426996748       39.7704871772  TIP3      3658            0.0000000000
     35874      3858  TIP3      H2            -19.5015591386      -16.2127837155       40.5714489011  TIP3      3658            0.0000000000
     35875      3859  TIP3      OH2           -37.2937902339      -16.9745360491       43.3301553681  TIP3      3659            0.0000000000
     35876      3859  TIP3      H1            -38.1815040102      -17.0109583219       43.7293462394  TIP3      3659            0.0000000000
     35877      3859  TIP3      H2            -37.4184778232      -16.2983562748       42.6258801722  TIP3      3659            0.0000000000
     35878      3860  TIP3      OH2           -23.3329264021       -1.8058742280       45.5850286119  TIP3      3660            0.0000000000
     35879      3860  TIP3      H1            -22.5480314998       -2.0735923539       45.0701259681  TIP3      3660            0.0000000000
     35880      3860  TIP3      H2            -22.9470221401       -1.2386344971       46.2705189136  TIP3      3660            0.0000000000
     35881      3861  TIP3      OH2           -35.5678419627       -1.8461546485       49.2236750107  TIP3      3661            0.0000000000
     35882      3861  TIP3      H1            -35.2704114127       -1.5902699570       50.1163255276  TIP3      3661            0.0000000000
     35883      3861  TIP3      H2            -34.8060150523       -2.4048852473       48.9513504758  TIP3      3661            0.0000000000
     35884      3862  TIP3      OH2           -33.9067152466       -3.4898451843       47.7977139096  TIP3      3662            0.0000000000
     35885      3862  TIP3      H1            -34.1493958423       -4.4318465633       47.8743952292  TIP3      3662            0.0000000000
     35886      3862  TIP3      H2            -32.9966825761       -3.4583753140       48.1454282704  TIP3      3662            0.0000000000
     35887      3863  TIP3      OH2           -31.2575151209       -2.8949937537       48.9418581078  TIP3      3663            0.0000000000
     35888      3863  TIP3      H1            -30.9244964343       -3.7520347329       48.6025492826  TIP3      3663            0.0000000000
     35889      3863  TIP3      H2            -30.9752475656       -2.9345492705       49.8581313756  TIP3      3663            0.0000000000
     35890      3864  TIP3      OH2           -27.9620142999      -16.7984375975       48.0127793102  TIP3      3664            0.0000000000
     35891      3864  TIP3      H1            -28.6141872990      -17.4533040316       48.3555480215  TIP3      3664            0.0000000000
     35892      3864  TIP3      H2            -27.3222650066      -17.4112184461       47.6183055400  TIP3      3664            0.0000000000
     35893      3865  TIP3      OH2           -22.3885963393      -18.8550817824       47.8690006562  TIP3      3665            0.0000000000
     35894      3865  TIP3      H1            -21.8676018406      -18.4529348193       47.1340402373  TIP3      3665            0.0000000000
     35895      3865  TIP3      H2            -23.3009248145      -18.5419800167       47.6822100838  TIP3      3665            0.0000000000
     35896      3866  TIP3      OH2           -20.8606507481      -18.0077590100       45.8464847321  TIP3      3666            0.0000000000
     35897      3866  TIP3      H1            -20.1739131066      -18.5587394175       45.4127739073  TIP3      3666            0.0000000000
     35898      3866  TIP3      H2            -20.3378260171      -17.1958016852       46.0410228302  TIP3      3666            0.0000000000
     35899      3867  TIP3      OH2           -35.1344506688      -18.9266981097       45.5190135510  TIP3      3667            0.0000000000
     35900      3867  TIP3      H1            -35.9715522894      -19.1474091454       45.0349395345  TIP3      3667            0.0000000000
     35901      3867  TIP3      H2            -34.6511996951      -19.7781619381       45.4225262887  TIP3      3667            0.0000000000
     35902      3868  TIP3      OH2           -36.1526671724      -18.9134911558       41.8513466375  TIP3      3668            0.0000000000
     35903      3868  TIP3      H1            -36.2226122901      -18.4956971693       40.9795320843  TIP3      3668            0.0000000000
     35904      3868  TIP3      H2            -36.5575378444      -18.2236601624       42.4274854559  TIP3      3668            0.0000000000
     35905      3869  TIP3      OH2           -31.1228572175      -19.3254367012       45.5898654453  TIP3      3669            0.0000000000
     35906      3869  TIP3      H1            -30.3110696732      -18.8574369197       45.3635879582  TIP3      3669            0.0000000000
     35907      3869  TIP3      H2            -31.1000274176      -19.3660512106       46.5539034975  TIP3      3669            0.0000000000
     35908      3870  TIP3      OH2           -24.9224814293      -18.5397962212       46.9519246105  TIP3      3670            0.0000000000
     35909      3870  TIP3      H1            -25.2455959811      -18.3815546294       46.0553548158  TIP3      3670            0.0000000000
     35910      3870  TIP3      H2            -25.3530957439      -19.3783524096       47.1990087576  TIP3      3670            0.0000000000
     35911      3871  TIP3      OH2           -23.8324118434      -18.6970524944       43.1411962231  TIP3      3671            0.0000000000
     35912      3871  TIP3      H1            -24.5583153221      -18.3205436660       42.6211552709  TIP3      3671            0.0000000000
     35913      3871  TIP3      H2            -24.2058681790      -19.5581657945       43.4256381907  TIP3      3671            0.0000000000
     35914      3872  TIP3      OH2           -36.4470430317       -2.5782487614       42.6022221286  TIP3      3672            0.0000000000
     35915      3872  TIP3      H1            -37.4106513516       -2.5369304719       42.5562448668  TIP3      3672            0.0000000000
     35916      3872  TIP3      H2            -36.2734912109       -1.6513996828       42.3185742972  TIP3      3672            0.0000000000
     35917      3873  TIP3      OH2           -35.3063680983      -17.1314158776       39.9042568472  TIP3      3673            0.0000000000
     35918      3873  TIP3      H1            -34.5617320435      -17.5819939520       39.4600846217  TIP3      3673            0.0000000000
     35919      3873  TIP3      H2            -34.9325861646      -16.9870156530       40.7873135921  TIP3      3673            0.0000000000
     35920      3874  TIP3      OH2           -29.6934373979      -16.6898833136       42.2198182566  TIP3      3674            0.0000000000
     35921      3874  TIP3      H1            -29.4444890731      -17.2689373679       42.9657308769  TIP3      3674            0.0000000000
     35922      3874  TIP3      H2            -29.5450224123      -15.8254732335       42.6545928508  TIP3      3674            0.0000000000
     35923      3875  TIP3      OH2           -27.6714858170       -1.5357304947       40.9072960643  TIP3      3675            0.0000000000
     35924      3875  TIP3      H1            -26.7535829415       -1.4776096292       40.5948606129  TIP3      3675            0.0000000000
     35925      3875  TIP3      H2            -28.0101800976       -2.0501842489       40.1346644495  TIP3      3675            0.0000000000
     35926      3876  TIP3      OH2           -21.3830523099       -2.4984739745       43.7949227058  TIP3      3676            0.0000000000
     35927      3876  TIP3      H1            -21.6229130177       -3.2715281548       43.2396832884  TIP3      3676            0.0000000000
     35928      3876  TIP3      H2            -21.4170024415       -1.7764451428       43.1337371280  TIP3      3676            0.0000000000
     35929      3877  TIP3      OH2           -35.3487966574       -1.9992292600       39.5096257732  TIP3      3677            0.0000000000
     35930      3877  TIP3      H1            -35.5051604040       -1.9253513716       40.4620250188  TIP3      3677            0.0000000000
     35931      3877  TIP3      H2            -34.6665009219       -2.6869750581       39.5041287604  TIP3      3677            0.0000000000
     35932      3878  TIP3      OH2            -7.4089491580       -9.3660778060       45.5020685872  TIP3      3678            0.0000000000
     35933      3878  TIP3      H1             -7.4079080395       -8.4053528691       45.6789849134  TIP3      3678            0.0000000000
     35934      3878  TIP3      H2             -8.2335212962       -9.4594096784       45.0160764797  TIP3      3678            0.0000000000
     35935      3879  TIP3      OH2            -8.4676843676      -10.3885184911       48.8410071353  TIP3      3679            0.0000000000
     35936      3879  TIP3      H1             -8.5604635327      -10.8485132299       49.6970302619  TIP3      3679            0.0000000000
     35937      3879  TIP3      H2             -9.2184946063      -10.7233200817       48.3353009244  TIP3      3679            0.0000000000
     35938      3880  TIP3      OH2            -5.5453339900       -7.4460503946       47.0219266169  TIP3      3680            0.0000000000
     35939      3880  TIP3      H1             -5.7086271388       -8.2131707754       47.6138125105  TIP3      3680            0.0000000000
     35940      3880  TIP3      H2             -5.1237288678       -6.8200375576       47.6553741614  TIP3      3680            0.0000000000
     35941      3881  TIP3      OH2           -15.2687446515       -6.0463864975       48.9021065345  TIP3      3681            0.0000000000
     35942      3881  TIP3      H1            -15.4542085929       -6.9613681887       48.6078991589  TIP3      3681            0.0000000000
     35943      3881  TIP3      H2            -14.3080643118       -5.9914551642       48.7959000716  TIP3      3681            0.0000000000
     35944      3882  TIP3      OH2           -18.4346934633      -13.0172832872       44.6756207771  TIP3      3682            0.0000000000
     35945      3882  TIP3      H1            -18.7953995891      -12.1515033265       44.9116690406  TIP3      3682            0.0000000000
     35946      3882  TIP3      H2            -19.2370973752      -13.4638810688       44.3586181011  TIP3      3682            0.0000000000
     35947      3883  TIP3      OH2           -17.7697716458      -10.3930064495       46.6829953053  TIP3      3683            0.0000000000
     35948      3883  TIP3      H1            -17.4174818847      -11.1702981737       47.1569873292  TIP3      3683            0.0000000000
     35949      3883  TIP3      H2            -17.2748846275       -9.6612187217       47.0973070375  TIP3      3683            0.0000000000
     35950      3884  TIP3      OH2            -7.9462795052       -1.8851162540       47.5192877965  TIP3      3684            0.0000000000
     35951      3884  TIP3      H1             -7.2831671528       -2.4105802196       47.0056488275  TIP3      3684            0.0000000000
     35952      3884  TIP3      H2             -8.1873535692       -2.5703141510       48.1393102909  TIP3      3684            0.0000000000
     35953      3885  TIP3      OH2            -9.6710554167       -7.5808956862       49.9823083658  TIP3      3685            0.0000000000
     35954      3885  TIP3      H1             -9.2635844192       -8.2310255679       49.3806929116  TIP3      3685            0.0000000000
     35955      3885  TIP3      H2             -9.1486688502       -7.7338923892       50.7843695758  TIP3      3685            0.0000000000
     35956      3886  TIP3      OH2            -7.0324423869      -13.4280166726       49.9063274861  TIP3      3686            0.0000000000
     35957      3886  TIP3      H1             -6.8356104817      -14.3778723406       49.9954372241  TIP3      3686            0.0000000000
     35958      3886  TIP3      H2             -7.1784114392      -13.3385232887       48.9498647169  TIP3      3686            0.0000000000
     35959      3887  TIP3      OH2           -13.6444466243      -15.5548712760       47.1808557738  TIP3      3687            0.0000000000
     35960      3887  TIP3      H1            -13.3787455430      -14.7546153259       46.6928080212  TIP3      3687            0.0000000000
     35961      3887  TIP3      H2            -14.1192621052      -16.0685085477       46.5030435525  TIP3      3687            0.0000000000
     35962      3888  TIP3      OH2            -6.5552304772      -15.1958576765       45.3907308138  TIP3      3688            0.0000000000
     35963      3888  TIP3      H1             -6.0059110481      -15.5477462746       46.1310156477  TIP3      3688            0.0000000000
     35964      3888  TIP3      H2             -5.9300284372      -14.5288064452       45.0585371431  TIP3      3688            0.0000000000
     35965      3889  TIP3      OH2           -17.3212280733      -13.1745466610       47.7288611121  TIP3      3689            0.0000000000
     35966      3889  TIP3      H1            -16.8181337250      -13.8546002500       48.2155280053  TIP3      3689            0.0000000000
     35967      3889  TIP3      H2            -17.3539510475      -13.5463512020       46.8328727041  TIP3      3689            0.0000000000
     35968      3890  TIP3      OH2           -12.3706120313      -11.5883468302       47.1050256692  TIP3      3690            0.0000000000
     35969      3890  TIP3      H1            -11.6668534566      -12.1159434363       47.5344348672  TIP3      3690            0.0000000000
     35970      3890  TIP3      H2            -12.8351084996      -12.2701301579       46.5711619333  TIP3      3690            0.0000000000
     35971      3891  TIP3      OH2            -8.1825760982       -6.9661180568       44.3356060570  TIP3      3691            0.0000000000
     35972      3891  TIP3      H1             -8.4422320744       -7.0515215318       43.4006259450  TIP3      3691            0.0000000000
     35973      3891  TIP3      H2             -8.3238165440       -6.0046222783       44.4983582944  TIP3      3691            0.0000000000
     35974      3892  TIP3      OH2            -4.7292359726      -15.6984748626       47.1955816867  TIP3      3692            0.0000000000
     35975      3892  TIP3      H1             -5.2744768731      -15.9339362816       47.9779137888  TIP3      3692            0.0000000000
     35976      3892  TIP3      H2             -3.8448563917      -15.9743926253       47.4994688702  TIP3      3692            0.0000000000
     35977      3893  TIP3      OH2           -15.2937108741      -14.5561537962       49.0883428188  TIP3      3693            0.0000000000
     35978      3893  TIP3      H1            -15.1068729330      -13.6082306426       48.9558085287  TIP3      3693            0.0000000000
     35979      3893  TIP3      H2            -14.8437790895      -14.9588934240       48.3225583282  TIP3      3693            0.0000000000
     35980      3894  TIP3      OH2           -18.0550627130       -7.3797545658       42.8175470722  TIP3      3694            0.0000000000
     35981      3894  TIP3      H1            -18.1374500556       -6.8179836347       42.0249918968  TIP3      3694            0.0000000000
     35982      3894  TIP3      H2            -17.9004912266       -6.7258548273       43.5210400383  TIP3      3694            0.0000000000
     35983      3895  TIP3      OH2            -4.4331282667       -5.8419026830       48.8977457585  TIP3      3695            0.0000000000
     35984      3895  TIP3      H1             -4.7695912458       -6.4004796875       49.6159509146  TIP3      3695            0.0000000000
     35985      3895  TIP3      H2             -3.9652713981       -5.1698757987       49.4126471150  TIP3      3695            0.0000000000
     35986      3896  TIP3      OH2           -11.1559601198      -18.8501921533       48.2300654639  TIP3      3696            0.0000000000
     35987      3896  TIP3      H1            -11.0404256487      -19.8037754703       48.3729626921  TIP3      3696            0.0000000000
     35988      3896  TIP3      H2            -12.0431410062      -18.6515559246       48.6144822619  TIP3      3696            0.0000000000
     35989      3897  TIP3      OH2            -6.2606021586       -3.5420849333       46.3490675593  TIP3      3697            0.0000000000
     35990      3897  TIP3      H1             -6.0664208063       -4.3440548094       45.8409056909  TIP3      3697            0.0000000000
     35991      3897  TIP3      H2             -5.4504871604       -3.0071144480       46.1793683761  TIP3      3697            0.0000000000
     35992      3898  TIP3      OH2            -4.6591629943       -5.8171764547       44.5818377954  TIP3      3698            0.0000000000
     35993      3898  TIP3      H1             -5.0173266343       -6.4379794937       43.9082113223  TIP3      3698            0.0000000000
     35994      3898  TIP3      H2             -4.8293438030       -6.3451475664       45.3851535480  TIP3      3698            0.0000000000
     35995      3899  TIP3      OH2            -8.9772907457      -10.2909902344       42.9151813873  TIP3      3699            0.0000000000
     35996      3899  TIP3      H1             -9.3785427874       -9.4032253841       42.8423118221  TIP3      3699            0.0000000000
     35997      3899  TIP3      H2             -8.0927063971      -10.1548318090       42.5144480164  TIP3      3699            0.0000000000
     35998      3900  TIP3      OH2            -8.4269868594      -11.2374667084       39.7963038894  TIP3      3700            0.0000000000
     35999      3900  TIP3      H1             -7.8517100427      -10.9037558003       40.5169158495  TIP3      3700            0.0000000000
     36000      3900  TIP3      H2             -8.3150009230      -12.1960253642       39.8982256458  TIP3      3700            0.0000000000
     36001      3901  TIP3      OH2            -4.9622565975      -10.1073245819       44.0104730018  TIP3      3701            0.0000000000
     36002      3901  TIP3      H1             -5.7200836691       -9.8498229178       44.5886889928  TIP3      3701            0.0000000000
     36003      3901  TIP3      H2             -4.3796835656      -10.5800544644       44.6468102213  TIP3      3701            0.0000000000
     36004      3902  TIP3      OH2           -13.6785438346       -9.5648456795       45.8187035181  TIP3      3702            0.0000000000
     36005      3902  TIP3      H1            -14.0456090010      -10.0741978600       45.0828646714  TIP3      3702            0.0000000000
     36006      3902  TIP3      H2            -13.0584390323      -10.2057563557       46.2245110417  TIP3      3702            0.0000000000
     36007      3903  TIP3      OH2           -12.3974649725       -5.8603845694       48.5790261475  TIP3      3703            0.0000000000
     36008      3903  TIP3      H1            -12.5082824880       -6.1295774547       47.6475175873  TIP3      3703            0.0000000000
     36009      3903  TIP3      H2            -11.7343815236       -6.4938130454       48.8893150424  TIP3      3703            0.0000000000
     36010      3904  TIP3      OH2           -13.9738689020      -11.4066217198       49.2695196882  TIP3      3704            0.0000000000
     36011      3904  TIP3      H1            -13.3242730177      -11.3567184129       48.5463631420  TIP3      3704            0.0000000000
     36012      3904  TIP3      H2            -13.8216957762      -10.5623913645       49.7220693037  TIP3      3704            0.0000000000
     36013      3905  TIP3      OH2            -6.5304103653      -10.4330249684       41.7487571515  TIP3      3705            0.0000000000
     36014      3905  TIP3      H1             -5.9081896538      -10.2443573308       42.4858837041  TIP3      3705            0.0000000000
     36015      3905  TIP3      H2             -6.0195211929      -10.0748726284       40.9766745473  TIP3      3705            0.0000000000
     36016      3906  TIP3      OH2            -8.6842801618       -4.3608793101       44.7593002294  TIP3      3706            0.0000000000
     36017      3906  TIP3      H1             -8.6283725295       -4.1926116906       45.7092724598  TIP3      3706            0.0000000000
     36018      3906  TIP3      H2             -9.1319979305       -3.5624081211       44.4410772314  TIP3      3706            0.0000000000
     36019      3907  TIP3      OH2            -2.5776514595      -19.2846373336       41.9320637945  TIP3      3707            0.0000000000
     36020      3907  TIP3      H1             -3.5304238803      -19.1376259153       42.1280963069  TIP3      3707            0.0000000000
     36021      3907  TIP3      H2             -2.2442111440      -18.3968026462       41.6858108358  TIP3      3707            0.0000000000
     36022      3908  TIP3      OH2           -15.0694123621      -10.6365887937       43.3072934665  TIP3      3708            0.0000000000
     36023      3908  TIP3      H1            -14.8103265631       -9.7242823971       43.0408744550  TIP3      3708            0.0000000000
     36024      3908  TIP3      H2            -16.0298890274      -10.5108616891       43.2703530621  TIP3      3708            0.0000000000
     36025      3909  TIP3      OH2            -1.2296965416       -4.7746276077       39.7538046698  TIP3      3709            0.0000000000
     36026      3909  TIP3      H1             -1.2513023219       -3.9000442698       40.1974824340  TIP3      3709            0.0000000000
     36027      3909  TIP3      H2             -0.4543610197       -5.1341281349       40.2343493745  TIP3      3709            0.0000000000
     36028      3910  TIP3      OH2           -18.8573901590       -4.7724344811       48.5120238511  TIP3      3710            0.0000000000
     36029      3910  TIP3      H1            -18.0549899378       -5.2563420185       48.7450805732  TIP3      3710            0.0000000000
     36030      3910  TIP3      H2            -19.1912395636       -4.4794851127       49.3718328526  TIP3      3710            0.0000000000
     36031      3911  TIP3      OH2            -9.1064033490       -1.5077074061       43.6014085258  TIP3      3711            0.0000000000
     36032      3911  TIP3      H1             -9.0490907879       -1.3722276220       42.6305193411  TIP3      3711            0.0000000000
     36033      3911  TIP3      H2             -9.2847607828       -0.5854068106       43.9055784828  TIP3      3711            0.0000000000
     36034      3912  TIP3      OH2           -15.5733251218       -2.5257616170       45.2473951798  TIP3      3712            0.0000000000
     36035      3912  TIP3      H1            -15.3952464876       -2.6961968509       46.2011925569  TIP3      3712            0.0000000000
     36036      3912  TIP3      H2            -16.4426152992       -2.9592538893       45.1275956091  TIP3      3712            0.0000000000
     36037      3913  TIP3      OH2            -6.0034602555       -2.0454586248       40.4459882211  TIP3      3713            0.0000000000
     36038      3913  TIP3      H1             -5.5918675921       -2.8574726361       40.0740439277  TIP3      3713            0.0000000000
     36039      3913  TIP3      H2             -6.0273834226       -2.2452150303       41.4014431665  TIP3      3713            0.0000000000
     36040      3914  TIP3      OH2            -6.4860970729       -2.1483771997       43.1481233763  TIP3      3714            0.0000000000
     36041      3914  TIP3      H1             -7.4271942189       -1.9607318463       43.3357880931  TIP3      3714            0.0000000000
     36042      3914  TIP3      H2             -6.3172129208       -2.8583924186       43.7818808265  TIP3      3714            0.0000000000
     36043      3915  TIP3      OH2           -13.7824362186      -17.9337206966       49.0513405421  TIP3      3715            0.0000000000
     36044      3915  TIP3      H1            -14.5452164649      -17.8820380536       48.4349603965  TIP3      3715            0.0000000000
     36045      3915  TIP3      H2            -13.8369536736      -17.0603826045       49.4499105995  TIP3      3715            0.0000000000
     36046      3916  TIP3      OH2            -5.0682524040       -9.4077261305       39.8172303395  TIP3      3716            0.0000000000
     36047      3916  TIP3      H1             -5.2580789207       -9.3715498085       38.8591041855  TIP3      3716            0.0000000000
     36048      3916  TIP3      H2             -4.1007999747       -9.3396569131       39.8025694522  TIP3      3716            0.0000000000
     36049      3917  TIP3      OH2            -9.2888926075      -15.9255144374       40.0059281855  TIP3      3717            0.0000000000
     36050      3917  TIP3      H1             -9.8006819145      -15.9826016748       40.8331942092  TIP3      3717            0.0000000000
     36051      3917  TIP3      H2             -9.8622187899      -16.4807718859       39.4561157785  TIP3      3717            0.0000000000
     36052      3918  TIP3      OH2           -13.5370236993      -13.4282623893       45.5858818716  TIP3      3718            0.0000000000
     36053      3918  TIP3      H1            -14.4300172385      -13.8582353618       45.5766083752  TIP3      3718            0.0000000000
     36054      3918  TIP3      H2            -13.1806181503      -13.6050194022       44.6849354626  TIP3      3718            0.0000000000
     36055      3919  TIP3      OH2            -7.9775086070      -12.3755891756       44.0955611709  TIP3      3719            0.0000000000
     36056      3919  TIP3      H1             -8.4019005400      -11.6431994493       43.5814675308  TIP3      3719            0.0000000000
     36057      3919  TIP3      H2             -7.3877639978      -12.7228136979       43.4040259644  TIP3      3719            0.0000000000
     36058      3920  TIP3      OH2            -7.4973915587      -12.8952898914       47.1047470053  TIP3      3720            0.0000000000
     36059      3920  TIP3      H1             -7.5907141010      -12.1558113477       46.4717204601  TIP3      3720            0.0000000000
     36060      3920  TIP3      H2             -7.2289251647      -13.6025144090       46.4887394789  TIP3      3720            0.0000000000
     36061      3921  TIP3      OH2           -12.8897737459      -15.4925984712       39.2648390572  TIP3      3721            0.0000000000
     36062      3921  TIP3      H1            -13.3975467702      -16.1183868201       39.8238923557  TIP3      3721            0.0000000000
     36063      3921  TIP3      H2            -13.5849350460      -15.1056893524       38.7036842679  TIP3      3721            0.0000000000
     36064      3922  TIP3      OH2           -19.4534487067      -15.8049063052       46.3537796478  TIP3      3722            0.0000000000
     36065      3922  TIP3      H1            -18.7587302470      -15.7792769390       47.0315383498  TIP3      3722            0.0000000000
     36066      3922  TIP3      H2            -18.9814984760      -16.0094835691       45.5350876732  TIP3      3722            0.0000000000
     36067      3923  TIP3      OH2           -18.1958641716      -15.1720141323       41.5060530148  TIP3      3723            0.0000000000
     36068      3923  TIP3      H1            -17.6282575641      -14.7612572416       40.8256066756  TIP3      3723            0.0000000000
     36069      3923  TIP3      H2            -18.8886258054      -14.4835662044       41.6040412514  TIP3      3723            0.0000000000
     36070      3924  TIP3      OH2           -10.7544938946      -15.4771587307       46.2030375516  TIP3      3724            0.0000000000
     36071      3924  TIP3      H1            -11.5328102401      -15.5916794773       46.7713454597  TIP3      3724            0.0000000000
     36072      3924  TIP3      H2            -10.0789023726      -15.9369433407       46.7484487804  TIP3      3724            0.0000000000
     36073      3925  TIP3      OH2           -16.0716564218      -14.2388132467       45.1507881097  TIP3      3725            0.0000000000
     36074      3925  TIP3      H1            -16.9530496606      -13.9207683869       44.8486167371  TIP3      3725            0.0000000000
     36075      3925  TIP3      H2            -16.1313715811      -15.2210485192       45.0437316438  TIP3      3725            0.0000000000
     36076      3926  TIP3      OH2           -12.5496786095      -13.8095003186       43.2049955585  TIP3      3726            0.0000000000
     36077      3926  TIP3      H1            -11.6505096150      -14.0495049059       43.5739430317  TIP3      3726            0.0000000000
     36078      3926  TIP3      H2            -12.2694207566      -13.5760230321       42.3069210677  TIP3      3726            0.0000000000
     36079      3927  TIP3      OH2            -6.5507604997      -16.0597571464       49.1810915038  TIP3      3727            0.0000000000
     36080      3927  TIP3      H1             -6.6369644865      -16.3448064441       50.1054309237  TIP3      3727            0.0000000000
     36081      3927  TIP3      H2             -7.4792916816      -16.0930682709       48.8951231595  TIP3      3727            0.0000000000
     36082      3928  TIP3      OH2           -14.0064073928      -12.6929919817       40.6809849665  TIP3      3728            0.0000000000
     36083      3928  TIP3      H1            -14.3267938107      -13.2413446681       39.9400246756  TIP3      3728            0.0000000000
     36084      3928  TIP3      H2            -13.2381726765      -12.3175326423       40.2060470481  TIP3      3728            0.0000000000
     36085      3929  TIP3      OH2            -9.9414820663      -13.0019596585       48.4840137283  TIP3      3729            0.0000000000
     36086      3929  TIP3      H1             -9.3184241948      -12.9102032383       47.7377582551  TIP3      3729            0.0000000000
     36087      3929  TIP3      H2             -9.4205062527      -13.5300703629       49.0975462571  TIP3      3729            0.0000000000
     36088      3930  TIP3      OH2           -15.3068705300      -16.7839491418       44.8917085796  TIP3      3730            0.0000000000
     36089      3930  TIP3      H1            -15.9048282836      -17.4732053152       45.2700511371  TIP3      3730            0.0000000000
     36090      3930  TIP3      H2            -14.8142515305      -17.3591215615       44.2910179396  TIP3      3730            0.0000000000
     36091      3931  TIP3      OH2           -10.4870148256       -8.1196627220       42.5910022788  TIP3      3731            0.0000000000
     36092      3931  TIP3      H1            -11.2580175069       -8.5062067827       42.1167575261  TIP3      3731            0.0000000000
     36093      3931  TIP3      H2            -10.9271356663       -7.8137165031       43.4202987327  TIP3      3731            0.0000000000
     36094      3932  TIP3      OH2            -6.8855743644      -15.5140896565       40.9946076389  TIP3      3732            0.0000000000
     36095      3932  TIP3      H1             -7.7531598050      -15.4346755208       40.5312648027  TIP3      3732            0.0000000000
     36096      3932  TIP3      H2             -6.5766899988      -14.5840145109       41.0286250992  TIP3      3732            0.0000000000
     36097      3933  TIP3      OH2            -6.1939757006      -13.1430199421       41.9545540645  TIP3      3733            0.0000000000
     36098      3933  TIP3      H1             -5.5191054881      -13.4668037713       42.5816003805  TIP3      3733            0.0000000000
     36099      3933  TIP3      H2             -5.8725835153      -12.2440108136       41.7751979295  TIP3      3733            0.0000000000
     36100      3934  TIP3      OH2           -15.7814160346       -8.6589158486       48.1288259592  TIP3      3734            0.0000000000
     36101      3934  TIP3      H1            -15.3721668061       -8.7086455387       47.2460137989  TIP3      3734            0.0000000000
     36102      3934  TIP3      H2            -15.0569422430       -8.8781599428       48.7432987042  TIP3      3734            0.0000000000
     36103      3935  TIP3      OH2            -8.6506465597       -6.6101344649       41.4697297444  TIP3      3735            0.0000000000
     36104      3935  TIP3      H1             -9.1318112973       -5.7621228996       41.6063365898  TIP3      3735            0.0000000000
     36105      3935  TIP3      H2             -9.3245937338       -7.2809094263       41.7240656229  TIP3      3735            0.0000000000
     36106      3936  TIP3      OH2            -1.3584409636      -13.4347675208       41.9614932872  TIP3      3736            0.0000000000
     36107      3936  TIP3      H1             -1.8869065943      -13.4563143063       41.1333884876  TIP3      3736            0.0000000000
     36108      3936  TIP3      H2             -1.0258807681      -12.5167404023       41.9711500271  TIP3      3736            0.0000000000
     36109      3937  TIP3      OH2            -2.9541703115       -4.8915567577       42.2379746484  TIP3      3737            0.0000000000
     36110      3937  TIP3      H1             -3.5249119699       -4.9828645741       43.0278651873  TIP3      3737            0.0000000000
     36111      3937  TIP3      H2             -2.7187255674       -5.8135297491       42.1115886848  TIP3      3737            0.0000000000
     36112      3938  TIP3      OH2            -5.8389617778       -9.5790981178       48.9198155975  TIP3      3738            0.0000000000
     36113      3938  TIP3      H1             -6.7614028716       -9.9154931077       48.8447987082  TIP3      3738            0.0000000000
     36114      3938  TIP3      H2             -5.3374406287      -10.2231037360       48.3763229561  TIP3      3738            0.0000000000
     36115      3939  TIP3      OH2           -13.4019723653       -5.1714418101       45.9124435742  TIP3      3739            0.0000000000
     36116      3939  TIP3      H1            -12.9024553274       -4.3342311915       45.8454028502  TIP3      3739            0.0000000000
     36117      3939  TIP3      H2            -14.0424681839       -5.0189262389       45.2048995193  TIP3      3739            0.0000000000
     36118      3940  TIP3      OH2           -16.8710883732      -10.2898591770       40.3438045618  TIP3      3740            0.0000000000
     36119      3940  TIP3      H1            -16.4791123324       -9.5393434251       40.8406745692  TIP3      3740            0.0000000000
     36120      3940  TIP3      H2            -17.8427633657      -10.1677791354       40.4450035363  TIP3      3740            0.0000000000
     36121      3941  TIP3      OH2           -11.8375963895       -7.3625472233       44.8039132725  TIP3      3741            0.0000000000
     36122      3941  TIP3      H1            -12.3997100679       -6.6581878846       45.1673831503  TIP3      3741            0.0000000000
     36123      3941  TIP3      H2            -12.0329061087       -8.1038959176       45.3901923262  TIP3      3741            0.0000000000
     36124      3942  TIP3      OH2           -12.9827342442       -2.8716262672       44.3990464423  TIP3      3742            0.0000000000
     36125      3942  TIP3      H1            -13.9217497905       -2.7185445815       44.6412708822  TIP3      3742            0.0000000000
     36126      3942  TIP3      H2            -12.6097972972       -2.0229067517       44.7219504395  TIP3      3742            0.0000000000
     36127      3943  TIP3      OH2            -5.2556346418       -6.3691009928       40.3563507462  TIP3      3743            0.0000000000
     36128      3943  TIP3      H1             -5.2659020608       -6.8493667007       41.2216197191  TIP3      3743            0.0000000000
     36129      3943  TIP3      H2             -6.1882552189       -6.5144565288       40.1150636301  TIP3      3743            0.0000000000
     36130      3944  TIP3      OH2            -0.9918229048       -2.1561394208       40.7217542917  TIP3      3744            0.0000000000
     36131      3944  TIP3      H1             -0.4620943704       -1.5244418172       40.2093947496  TIP3      3744            0.0000000000
     36132      3944  TIP3      H2             -1.7036017843       -1.5530144850       41.0397534759  TIP3      3744            0.0000000000
     36133      3945  TIP3      OH2            -4.4774618230       -7.7732005548       42.5783792432  TIP3      3745            0.0000000000
     36134      3945  TIP3      H1             -4.6938966449       -8.6171545264       43.0270950799  TIP3      3745            0.0000000000
     36135      3945  TIP3      H2             -3.5048308155       -7.8347351667       42.5418767918  TIP3      3745            0.0000000000
     36136      3946  TIP3      OH2           -11.3060473823       -5.0704341480       38.8881855277  TIP3      3746            0.0000000000
     36137      3946  TIP3      H1            -11.3018615660       -5.6251477368       38.0934575138  TIP3      3746            0.0000000000
     36138      3946  TIP3      H2            -11.8572459216       -5.5979124985       39.4969414435  TIP3      3746            0.0000000000
     36139      3947  TIP3      OH2           -12.5631424517       -5.8329907328       41.2512222968  TIP3      3747            0.0000000000
     36140      3947  TIP3      H1            -11.8118761846       -6.1173027896       41.8022071664  TIP3      3747            0.0000000000
     36141      3947  TIP3      H2            -12.4998592262       -4.8635996517       41.4486445768  TIP3      3747            0.0000000000
     36142      3948  TIP3      OH2           -15.7385224840       -8.3297352728       41.6934250736  TIP3      3748            0.0000000000
     36143      3948  TIP3      H1            -16.6061521336       -8.1072368748       42.1061787637  TIP3      3748            0.0000000000
     36144      3948  TIP3      H2            -15.4126314316       -7.4658481977       41.3827350689  TIP3      3748            0.0000000000
     36145      3949  TIP3      OH2            -6.9560811654      -16.9471876102       43.2642764215  TIP3      3749            0.0000000000
     36146      3949  TIP3      H1             -7.1182917301      -16.3278195787       42.5136082488  TIP3      3749            0.0000000000
     36147      3949  TIP3      H2             -6.7587424568      -16.3413692798       44.0048176594  TIP3      3749            0.0000000000
     36148      3950  TIP3      OH2            -9.7020318331       -4.1318607481       41.7766851503  TIP3      3750            0.0000000000
     36149      3950  TIP3      H1            -10.5680454590       -3.7016395740       41.9193005473  TIP3      3750            0.0000000000
     36150      3950  TIP3      H2             -9.1277429704       -3.3479221015       41.7313580552  TIP3      3750            0.0000000000
     36151      3951  TIP3      OH2           -10.0649842627      -14.4991439779       43.8285426208  TIP3      3751            0.0000000000
     36152      3951  TIP3      H1             -9.4419823118      -13.7459863646       43.9257721127  TIP3      3751            0.0000000000
     36153      3951  TIP3      H2            -10.2324543399      -14.8036059088       44.7543499388  TIP3      3751            0.0000000000
     36154      3952  TIP3      OH2            -9.3688598586      -17.6712254724       44.2951319506  TIP3      3752            0.0000000000
     36155      3952  TIP3      H1             -9.7039639202      -17.0635500989       44.9688885892  TIP3      3752            0.0000000000
     36156      3952  TIP3      H2             -8.5454950852      -17.2255440723       43.9869654459  TIP3      3752            0.0000000000
     36157      3953  TIP3      OH2           -12.3268709953       -3.3161530393       41.7372508766  TIP3      3753            0.0000000000
     36158      3953  TIP3      H1            -12.1509983213       -2.4765607259       41.2374471467  TIP3      3753            0.0000000000
     36159      3953  TIP3      H2            -12.6996632336       -2.9259444976       42.5528625050  TIP3      3753            0.0000000000
     36160      3954  TIP3      OH2           -14.0101403839      -16.7536139285       41.4836460509  TIP3      3754            0.0000000000
     36161      3954  TIP3      H1            -13.7028339295      -16.0385202285       42.0578232919  TIP3      3754            0.0000000000
     36162      3954  TIP3      H2            -13.1900974597      -17.2877727485       41.4071610251  TIP3      3754            0.0000000000
     36163      3955  TIP3      OH2            -4.8212677715      -11.6959976012       47.5955464009  TIP3      3755            0.0000000000
     36164      3955  TIP3      H1             -5.5674093610      -12.2806820025       47.7988768178  TIP3      3755            0.0000000000
     36165      3955  TIP3      H2             -4.1367375302      -12.0809719078       48.1949486859  TIP3      3755            0.0000000000
     36166      3956  TIP3      OH2           -15.1784562010       -5.7774443370       40.4570806325  TIP3      3756            0.0000000000
     36167      3956  TIP3      H1            -15.3654705889       -5.0031692852       41.0147306379  TIP3      3756            0.0000000000
     36168      3956  TIP3      H2            -14.2247383356       -5.9003138750       40.7088100934  TIP3      3756            0.0000000000
     36169      3957  TIP3      OH2           -17.0825219014      -13.2124023587       39.8103934750  TIP3      3757            0.0000000000
     36170      3957  TIP3      H1            -16.7122977217      -12.3223305403       39.9475193759  TIP3      3757            0.0000000000
     36171      3957  TIP3      H2            -17.8475530176      -13.0442593763       39.2465719463  TIP3      3757            0.0000000000
     36172      3958  TIP3      OH2            -3.6304921104       -2.3363970510       49.5801725084  TIP3      3758            0.0000000000
     36173      3958  TIP3      H1             -3.4818035118       -1.4671499445       49.1501416869  TIP3      3758            0.0000000000
     36174      3958  TIP3      H2             -2.7944969084       -2.4605219204       50.0493045485  TIP3      3758            0.0000000000
     36175      3959  TIP3      OH2           -16.1791805129      -18.1823967215       47.8799033723  TIP3      3759            0.0000000000
     36176      3959  TIP3      H1            -16.3449069095      -18.5762352784       46.9927691457  TIP3      3759            0.0000000000
     36177      3959  TIP3      H2            -16.1974698802      -18.9789465473       48.4390706928  TIP3      3759            0.0000000000
     36178      3960  TIP3      OH2           -17.4541580567       -4.6478640795       44.5443926824  TIP3      3760            0.0000000000
     36179      3960  TIP3      H1            -18.2432600111       -4.1443606742       44.8055472700  TIP3      3760            0.0000000000
     36180      3960  TIP3      H2            -17.2912703647       -4.2364059280       43.6773668691  TIP3      3760            0.0000000000
     36181      3961  TIP3      OH2            -9.2240955159       -3.1470113651       38.7990395580  TIP3      3761            0.0000000000
     36182      3961  TIP3      H1             -9.7282014929       -3.9635275788       39.0234052631  TIP3      3761            0.0000000000
     36183      3961  TIP3      H2             -8.4572295716       -3.5142750200       38.3110363401  TIP3      3761            0.0000000000
     36184      3962  TIP3      OH2            -4.7624410755       -3.9751593481       38.9184662442  TIP3      3762            0.0000000000
     36185      3962  TIP3      H1             -4.6203469869       -4.6702144642       39.6012102227  TIP3      3762            0.0000000000
     36186      3962  TIP3      H2             -3.8980675478       -3.8780652103       38.5020475034  TIP3      3762            0.0000000000
     36187      3963  TIP3      OH2           -13.8050456503       -7.7952668836       38.7193937184  TIP3      3763            0.0000000000
     36188      3963  TIP3      H1            -13.5505687063       -8.0779117440       39.6138203797  TIP3      3763            0.0000000000
     36189      3963  TIP3      H2            -12.9736809475       -8.0219984965       38.2254213218  TIP3      3763            0.0000000000
     36190      3964  TIP3      OH2            -8.3326365480       -6.5068094334       38.5605719326  TIP3      3764            0.0000000000
     36191      3964  TIP3      H1             -8.5659885046       -6.6045442768       39.5007552049  TIP3      3764            0.0000000000
     36192      3964  TIP3      H2             -8.2906614874       -7.4640316246       38.3078991000  TIP3      3764            0.0000000000
     36193      3965  TIP3      OH2           -12.6054630608       -9.6226368125       41.4037643708  TIP3      3765            0.0000000000
     36194      3965  TIP3      H1            -13.2051137237      -10.2580894550       41.8306352607  TIP3      3765            0.0000000000
     36195      3965  TIP3      H2            -12.1471348576      -10.2184244199       40.7697199382  TIP3      3765            0.0000000000
     36196      3966  TIP3      OH2           -11.5924621685      -11.3785130826       39.4640876636  TIP3      3766            0.0000000000
     36197      3966  TIP3      H1            -11.7780484272      -11.1427513949       38.5269476085  TIP3      3766            0.0000000000
     36198      3966  TIP3      H2            -10.6149994910      -11.4456903822       39.4646979333  TIP3      3766            0.0000000000
     36199      3967  TIP3      OH2            -2.3103806660       -9.3282918400       38.8123725596  TIP3      3767            0.0000000000
     36200      3967  TIP3      H1             -2.4525889861       -9.6404773668       37.8879359210  TIP3      3767            0.0000000000
     36201      3967  TIP3      H2             -2.4814300583       -8.3669953978       38.7516203155  TIP3      3767            0.0000000000
     36202      3968  TIP3      OH2           -11.6250027109       -0.9539728318       40.9868588907  TIP3      3768            0.0000000000
     36203      3968  TIP3      H1            -10.6497208505       -0.9857608540       40.9424491505  TIP3      3768            0.0000000000
     36204      3968  TIP3      H2            -11.8316601634       -0.2509232476       40.3369018674  TIP3      3768            0.0000000000
     36205      3969  TIP3      OH2           -18.2839598491       -6.4522532106       40.3395756262  TIP3      3769            0.0000000000
     36206      3969  TIP3      H1            -17.4254570398       -6.6130022102       39.9344724801  TIP3      3769            0.0000000000
     36207      3969  TIP3      H2            -18.8680710171       -6.9102842704       39.6866993752  TIP3      3769            0.0000000000
     36208      3970  TIP3      OH2           -19.1778404225       -1.2964434883       44.7389536924  TIP3      3770            0.0000000000
     36209      3970  TIP3      H1            -20.0345159266       -1.7250419275       44.5300234670  TIP3      3770            0.0000000000
     36210      3970  TIP3      H2            -18.9697863340       -1.7492250823       45.5856367698  TIP3      3770            0.0000000000
     36211      3971  TIP3      OH2           -18.3855811820       -2.8436673647       46.7685115585  TIP3      3771            0.0000000000
     36212      3971  TIP3      H1            -18.7048576066       -3.6623623305       47.2224639840  TIP3      3771            0.0000000000
     36213      3971  TIP3      H2            -17.9361165887       -2.3833087144       47.5117528963  TIP3      3771            0.0000000000
     36214      3972  TIP3      OH2            -1.7383864335       -8.3477289562       42.5474277919  TIP3      3772            0.0000000000
     36215      3972  TIP3      H1             -0.8627718745       -7.9394895447       42.7103833322  TIP3      3772            0.0000000000
     36216      3972  TIP3      H2             -1.7825478548       -8.9688800227       43.3157331821  TIP3      3772            0.0000000000
     36217      3973  TIP3      OH2            -1.5003745475      -10.0777392604       44.6988695192  TIP3      3773            0.0000000000
     36218      3973  TIP3      H1             -2.1858829826      -10.5991459824       45.1650932049  TIP3      3773            0.0000000000
     36219      3973  TIP3      H2             -0.7925654883      -10.0132141339       45.3636032190  TIP3      3773            0.0000000000
     36220      3974  TIP3      OH2            -1.0710126999       -7.3242788502       49.4638782929  TIP3      3774            0.0000000000
     36221      3974  TIP3      H1             -0.3548604144       -7.8828551125       49.0855209183  TIP3      3774            0.0000000000
     36222      3974  TIP3      H2             -1.2719520551       -6.6463124497       48.8046746069  TIP3      3774            0.0000000000
     36223      3975  TIP3      OH2            -0.8678948292      -10.4185481163       40.9427967146  TIP3      3775            0.0000000000
     36224      3975  TIP3      H1             -1.5886763065      -10.2932529227       40.2881410516  TIP3      3775            0.0000000000
     36225      3975  TIP3      H2             -1.1384169225       -9.7672633214       41.6181415280  TIP3      3775            0.0000000000
     36226      3976  TIP3      OH2            -2.7671571500      -13.2245933316       39.3821042490  TIP3      3776            0.0000000000
     36227      3976  TIP3      H1             -2.5317319899      -12.6243305715       38.6541386930  TIP3      3776            0.0000000000
     36228      3976  TIP3      H2             -2.9984770551      -14.0513379144       38.9080623462  TIP3      3776            0.0000000000
     36229      3977  TIP3      OH2            -3.3922967905      -11.8770694160       45.3762681987  TIP3      3777            0.0000000000
     36230      3977  TIP3      H1             -3.6897477655      -12.7176337496       44.9775934101  TIP3      3777            0.0000000000
     36231      3977  TIP3      H2             -3.8478395920      -11.8891313875       46.2519458659  TIP3      3777            0.0000000000
     36232      3978  TIP3      OH2           -18.7102318258       -9.7616466747       49.0788166826  TIP3      3778            0.0000000000
     36233      3978  TIP3      H1            -18.3922960412      -10.0433187051       48.2033993465  TIP3      3778            0.0000000000
     36234      3978  TIP3      H2            -17.9407920473       -9.9580799047       49.6419479144  TIP3      3778            0.0000000000
     36235      3979  TIP3      OH2            -3.3272233376      -15.8933965975       38.6059684774  TIP3      3779            0.0000000000
     36236      3979  TIP3      H1             -2.9472817759      -16.2625484504       39.4305675930  TIP3      3779            0.0000000000
     36237      3979  TIP3      H2             -4.2313101023      -16.2314911529       38.5811777040  TIP3      3779            0.0000000000
     36238      3980  TIP3      OH2            -4.1845828730      -13.9423092233       43.7404726817  TIP3      3780            0.0000000000
     36239      3980  TIP3      H1             -4.0385175075      -14.9018399847       43.9075020940  TIP3      3780            0.0000000000
     36240      3980  TIP3      H2             -3.3466581769      -13.7513627093       43.2960622228  TIP3      3780            0.0000000000
     36241      3981  TIP3      OH2            -3.2184795038      -13.3487807557       48.9475646518  TIP3      3781            0.0000000000
     36242      3981  TIP3      H1             -2.2451084900      -13.4494941398       48.8730036892  TIP3      3781            0.0000000000
     36243      3981  TIP3      H2             -3.4500655187      -14.2760621313       49.1895991145  TIP3      3781            0.0000000000
     36244      3982  TIP3      OH2            -3.3753698908      -16.6391465586       43.8454524226  TIP3      3782            0.0000000000
     36245      3982  TIP3      H1             -2.9774592009      -17.0757529681       44.6273086405  TIP3      3782            0.0000000000
     36246      3982  TIP3      H2             -3.8369556424      -17.4073892185       43.4593104848  TIP3      3782            0.0000000000
     36247      3983  TIP3      OH2           -17.7390266216      -16.0341634485       48.7092433040  TIP3      3783            0.0000000000
     36248      3983  TIP3      H1            -17.2985412062      -16.8739914818       48.4359635403  TIP3      3783            0.0000000000
     36249      3983  TIP3      H2            -17.0810474135      -15.6976134100       49.3533628748  TIP3      3783            0.0000000000
     36250      3984  TIP3      OH2           -19.4367059568      -13.3703899456       49.6835562047  TIP3      3784            0.0000000000
     36251      3984  TIP3      H1            -18.9486607859      -13.7933133466       48.9528793599  TIP3      3784            0.0000000000
     36252      3984  TIP3      H2            -19.0916146153      -12.4669649882       49.6581650125  TIP3      3784            0.0000000000
     36253      3985  TIP3      OH2            -1.3657760532      -17.0091312376       40.5442233225  TIP3      3785            0.0000000000
     36254      3985  TIP3      H1             -1.0383268870      -17.5228605934       39.7705554294  TIP3      3785            0.0000000000
     36255      3985  TIP3      H2             -0.5391595898      -16.5833416775       40.8536078507  TIP3      3785            0.0000000000
     36256      3986  TIP3      OH2           -19.2864731836      -16.9625587382       43.2843941675  TIP3      3786            0.0000000000
     36257      3986  TIP3      H1            -20.2009934421      -16.6420625650       43.3138720539  TIP3      3786            0.0000000000
     36258      3986  TIP3      H2            -18.9352844629      -16.4302959725       42.5517211310  TIP3      3786            0.0000000000
     36259      3987  TIP3      OH2            -4.3802935637       -1.7723833201       45.6622737654  TIP3      3787            0.0000000000
     36260      3987  TIP3      H1             -3.5988713973       -2.0313240258       45.1371749864  TIP3      3787            0.0000000000
     36261      3987  TIP3      H2             -4.0239601791       -1.2255131300       46.3774073810  TIP3      3787            0.0000000000
     36262      3988  TIP3      OH2           -16.9385949160       -1.8785078380       48.8770055449  TIP3      3788            0.0000000000
     36263      3988  TIP3      H1            -16.7058490783       -1.7926526511       49.8303964704  TIP3      3788            0.0000000000
     36264      3988  TIP3      H2            -16.1557625973       -2.3769647699       48.5472252296  TIP3      3788            0.0000000000
     36265      3989  TIP3      OH2           -15.0071036094       -3.2388194148       47.7313418762  TIP3      3789            0.0000000000
     36266      3989  TIP3      H1            -15.0994794056       -4.2033944708       47.8236895707  TIP3      3789            0.0000000000
     36267      3989  TIP3      H2            -14.1506132155       -3.0910167198       48.2029858043  TIP3      3789            0.0000000000
     36268      3990  TIP3      OH2           -12.6263651652       -2.9657863408       48.8730950775  TIP3      3790            0.0000000000
     36269      3990  TIP3      H1            -12.2606525312       -3.8518925567       48.6741612834  TIP3      3790            0.0000000000
     36270      3990  TIP3      H2            -12.5587715451       -2.9348149636       49.8329309656  TIP3      3790            0.0000000000
     36271      3991  TIP3      OH2            -8.9776897646      -16.9052753966       47.8627969158  TIP3      3791            0.0000000000
     36272      3991  TIP3      H1             -9.6021042579      -17.5983480639       48.1561289466  TIP3      3791            0.0000000000
     36273      3991  TIP3      H2             -8.1646857393      -17.4342927973       47.8819651585  TIP3      3791            0.0000000000
     36274      3992  TIP3      OH2            -3.5616202669      -18.9079548507       47.8465612997  TIP3      3792            0.0000000000
     36275      3992  TIP3      H1             -3.0485886717      -18.4471959686       47.1365139284  TIP3      3792            0.0000000000
     36276      3992  TIP3      H2             -4.4844146038      -18.6168690246       47.6654888701  TIP3      3792            0.0000000000
     36277      3993  TIP3      OH2            -1.9627311648      -18.0048172333       45.8366864724  TIP3      3793            0.0000000000
     36278      3993  TIP3      H1             -1.2743301296      -18.5204549481       45.3722921420  TIP3      3793            0.0000000000
     36279      3993  TIP3      H2             -1.4569371193      -17.1762073942       46.0378358079  TIP3      3793            0.0000000000
     36280      3994  TIP3      OH2           -16.6511092006      -19.0227059346       45.3821298873  TIP3      3794            0.0000000000
     36281      3994  TIP3      H1            -17.4790974754      -19.2489135049       44.8955789065  TIP3      3794            0.0000000000
     36282      3994  TIP3      H2            -16.1970243769      -19.8932377923       45.3515075487  TIP3      3794            0.0000000000
     36283      3995  TIP3      OH2           -17.7442041509      -18.9328497628       41.5019038527  TIP3      3795            0.0000000000
     36284      3995  TIP3      H1            -17.4805649905      -18.2676445676       40.8438171838  TIP3      3795            0.0000000000
     36285      3995  TIP3      H2            -18.3139878134      -18.3922372707       42.0890872202  TIP3      3795            0.0000000000
     36286      3996  TIP3      OH2           -12.2360282572      -19.2905772863       45.6132164877  TIP3      3796            0.0000000000
     36287      3996  TIP3      H1            -11.4420685368      -18.9655661540       45.1845438762  TIP3      3796            0.0000000000
     36288      3996  TIP3      H2            -11.9799068228      -19.2968025789       46.5454492136  TIP3      3796            0.0000000000
     36289      3997  TIP3      OH2            -6.1142854239      -18.5945964957       47.0116976475  TIP3      3797            0.0000000000
     36290      3997  TIP3      H1             -6.4426738253      -18.3677618701       46.1334437556  TIP3      3797            0.0000000000
     36291      3997  TIP3      H2             -6.5147467982      -19.4745100775       47.1841839619  TIP3      3797            0.0000000000
     36292      3998  TIP3      OH2            -4.9067003355      -18.8384629683       43.1262324389  TIP3      3798            0.0000000000
     36293      3998  TIP3      H1             -5.7141999674      -18.2886697060       43.0779173947  TIP3      3798            0.0000000000
     36294      3998  TIP3      H2             -5.2785372288      -19.6831865868       43.4432703773  TIP3      3798            0.0000000000
     36295      3999  TIP3      OH2           -17.7638040410       -3.0046354269       42.4186842256  TIP3      3799            0.0000000000
     36296      3999  TIP3      H1            -18.7333976504       -2.9071117426       42.3377806484  TIP3      3799            0.0000000000
     36297      3999  TIP3      H2            -17.5195910123       -2.1293356984       42.0549974559  TIP3      3799            0.0000000000
     36298      4000  TIP3      OH2           -16.4680781399      -16.8791653811       39.7763017524  TIP3      3800            0.0000000000
     36299      4000  TIP3      H1            -15.9484489551      -17.4918464242       39.2180383155  TIP3      3800            0.0000000000
     36300      4000  TIP3      H2            -15.9644879437      -16.9560560604       40.6013230591  TIP3      3800            0.0000000000
     36301      4001  TIP3      OH2           -10.9971047581      -16.4613476583       42.0755034313  TIP3      3801            0.0000000000
     36302      4001  TIP3      H1            -10.6398169622      -17.2079578375       42.5800926800  TIP3      3801            0.0000000000
     36303      4001  TIP3      H2            -10.6714070511      -15.7219395191       42.6246236054  TIP3      3801            0.0000000000
     36304      4002  TIP3      OH2            -8.7694268824       -1.5744213745       40.8969933502  TIP3      3802            0.0000000000
     36305      4002  TIP3      H1             -7.8468292975       -1.4740301076       40.5975413324  TIP3      3802            0.0000000000
     36306      4002  TIP3      H2             -9.0942052869       -2.1010185041       40.1262584759  TIP3      3802            0.0000000000
     36307      4003  TIP3      OH2            -2.6143665051       -2.5927027080       43.7068685320  TIP3      3803            0.0000000000
     36308      4003  TIP3      H1             -2.6826905889       -3.3098090147       43.0406494131  TIP3      3803            0.0000000000
     36309      4003  TIP3      H2             -2.6239756560       -1.8040126004       43.1261873648  TIP3      3803            0.0000000000
     36310      4004  TIP3      OH2           -16.6812471435       -2.4467370956       39.3253955757  TIP3      3804            0.0000000000
     36311      4004  TIP3      H1            -16.8114240938       -1.8847029340       40.1121102238  TIP3      3804            0.0000000000
     36312      4004  TIP3      H2            -15.7970900160       -2.8128301251       39.4912824613  TIP3      3804            0.0000000000
     36313      4005  TIP3      OH2            11.6373527476       -9.3234590046       45.3236000067  TIP3      3805            0.0000000000
     36314      4005  TIP3      H1             11.3824395315       -8.3849057698       45.1166608690  TIP3      3805            0.0000000000
     36315      4005  TIP3      H2             10.7823481184       -9.6729683738       45.6169046972  TIP3      3805            0.0000000000
     36316      4006  TIP3      OH2            10.1296995241       -9.8578022753       49.8844169577  TIP3      3806            0.0000000000
     36317      4006  TIP3      H1             10.0781761306      -10.7568650958       50.2697341653  TIP3      3806            0.0000000000
     36318      4006  TIP3      H2              9.6346961170       -9.9820518287       49.0376237874  TIP3      3806            0.0000000000
     36319      4007  TIP3      OH2            13.4301183179       -7.4729915874       47.1554931906  TIP3      3807            0.0000000000
     36320      4007  TIP3      H1             13.0398820086       -8.1812655526       47.6917958042  TIP3      3807            0.0000000000
     36321      4007  TIP3      H2             13.8050775030       -6.8813209067       47.8511162784  TIP3      3807            0.0000000000
     36322      4008  TIP3      OH2             3.5617254139       -6.0281010838       49.0247048961  TIP3      3808            0.0000000000
     36323      4008  TIP3      H1              3.3613167990       -6.9565411070       48.7888094702  TIP3      3808            0.0000000000
     36324      4008  TIP3      H2              4.5205869418       -5.9957487470       48.8645622610  TIP3      3808            0.0000000000
     36325      4009  TIP3      OH2             0.3139805976      -12.9806819119       44.6229036449  TIP3      3809            0.0000000000
     36326      4009  TIP3      H1              0.0633193932      -12.0989027181       44.9360679664  TIP3      3809            0.0000000000
     36327      4009  TIP3      H2             -0.5492305981      -13.3283593733       44.3626663299  TIP3      3809            0.0000000000
     36328      4010  TIP3      OH2             0.9597926707      -10.4304038250       46.6810803292  TIP3      3810            0.0000000000
     36329      4010  TIP3      H1              1.4440814804      -11.1432938838       47.1492508219  TIP3      3810            0.0000000000
     36330      4010  TIP3      H2              1.5677171925       -9.6704510139       46.7469407338  TIP3      3810            0.0000000000
     36331      4011  TIP3      OH2            10.8157746503       -1.9250678994       47.9439002447  TIP3      3811            0.0000000000
     36332      4011  TIP3      H1             11.4023704749       -2.4037618934       47.3208056346  TIP3      3811            0.0000000000
     36333      4011  TIP3      H2             10.5767043222       -2.7119833064       48.4608798311  TIP3      3811            0.0000000000
     36334      4012  TIP3      OH2             8.9618438269       -7.2596946974       49.7596328422  TIP3      3812            0.0000000000
     36335      4012  TIP3      H1              8.9404571279       -7.7094605577       48.9023369150  TIP3      3812            0.0000000000
     36336      4012  TIP3      H2              9.5750455276       -7.8667506945       50.2215947274  TIP3      3812            0.0000000000
     36337      4013  TIP3      OH2            12.1669631087      -13.3594403683       49.7366896081  TIP3      3813            0.0000000000
     36338      4013  TIP3      H1             12.1081283567      -14.3341243277       49.7731401338  TIP3      3813            0.0000000000
     36339      4013  TIP3      H2             11.9355493113      -13.1953926559       48.7996655400  TIP3      3813            0.0000000000
     36340      4014  TIP3      OH2             5.1658067342      -15.5436623545       47.0588449329  TIP3      3814            0.0000000000
     36341      4014  TIP3      H1              5.3807718305      -14.7511126582       46.5081027912  TIP3      3814            0.0000000000
     36342      4014  TIP3      H2              4.7063992435      -16.0998974402       46.4018131342  TIP3      3814            0.0000000000
     36343      4015  TIP3      OH2            12.2845746135      -15.0853971977       45.3948558088  TIP3      3815            0.0000000000
     36344      4015  TIP3      H1             12.7193675898      -15.5985725447       46.1157825096  TIP3      3815            0.0000000000
     36345      4015  TIP3      H2             13.0194864257      -14.4847384498       45.2042968007  TIP3      3815            0.0000000000
     36346      4016  TIP3      OH2             1.5244936616      -13.1677676048       47.6337628579  TIP3      3816            0.0000000000
     36347      4016  TIP3      H1              2.1115004429      -13.8313851052       48.0337754420  TIP3      3816            0.0000000000
     36348      4016  TIP3      H2              1.5965617342      -13.4421899799       46.6873026173  TIP3      3816            0.0000000000
     36349      4017  TIP3      OH2             5.7816085084      -11.3354476949       47.1352227213  TIP3      3817            0.0000000000
     36350      4017  TIP3      H1              6.7304292654      -11.1004407096       47.2326828050  TIP3      3817            0.0000000000
     36351      4017  TIP3      H2              5.8170038272      -12.1380127725       46.5765580608  TIP3      3817            0.0000000000
     36352      4018  TIP3      OH2            10.6970108661       -6.9516922865       44.5499095773  TIP3      3818            0.0000000000
     36353      4018  TIP3      H1             10.6657878092       -7.0415958302       43.5689882339  TIP3      3818            0.0000000000
     36354      4018  TIP3      H2             10.5891396741       -5.9819646225       44.6494143898  TIP3      3818            0.0000000000
     36355      4019  TIP3      OH2            14.0052907459      -15.7393238096       47.2311903074  TIP3      3819            0.0000000000
     36356      4019  TIP3      H1             13.4050067977      -15.8546737593       48.0142339449  TIP3      3819            0.0000000000
     36357      4019  TIP3      H2             14.8666498442      -15.9292296793       47.6205219430  TIP3      3819            0.0000000000
     36358      4020  TIP3      OH2             3.4856722902      -14.5129521597       48.9441130794  TIP3      3820            0.0000000000
     36359      4020  TIP3      H1              3.7371887413      -13.5793990996       48.8629170915  TIP3      3820            0.0000000000
     36360      4020  TIP3      H2              3.9692517117      -14.9175002891       48.1875128508  TIP3      3820            0.0000000000
     36361      4021  TIP3      OH2             0.8198018195       -7.3700846311       42.6435705394  TIP3      3821            0.0000000000
     36362      4021  TIP3      H1              0.7790728028       -6.8213929038       41.8327939308  TIP3      3821            0.0000000000
     36363      4021  TIP3      H2              0.8515923844       -6.6927520731       43.3448939462  TIP3      3821            0.0000000000
     36364      4022  TIP3      OH2            14.6067076724       -5.9339442703       48.9536651574  TIP3      3822            0.0000000000
     36365      4022  TIP3      H1             14.1877281644       -6.4206111143       49.6988423644  TIP3      3822            0.0000000000
     36366      4022  TIP3      H2             15.0002179811       -5.1889878492       49.4176653094  TIP3      3822            0.0000000000
     36367      4023  TIP3      OH2             7.5947307377      -18.9916289932       48.3171649508  TIP3      3823            0.0000000000
     36368      4023  TIP3      H1              7.6570442500      -19.9600988100       48.3572777990  TIP3      3823            0.0000000000
     36369      4023  TIP3      H2              6.6728228288      -18.8087352784       48.6317306383  TIP3      3823            0.0000000000
     36370      4024  TIP3      OH2            12.3224887016       -3.3331789958       46.2769679772  TIP3      3824            0.0000000000
     36371      4024  TIP3      H1             12.7162858417       -4.2217728312       46.1686806975  TIP3      3824            0.0000000000
     36372      4024  TIP3      H2             13.1009512480       -2.7887152673       46.0038671798  TIP3      3824            0.0000000000
     36373      4025  TIP3      OH2            13.9429474422       -5.5195260667       45.1866912549  TIP3      3825            0.0000000000
     36374      4025  TIP3      H1             13.7646053004       -6.1231838562       44.4437714073  TIP3      3825            0.0000000000
     36375      4025  TIP3      H2             13.8229303821       -6.1490215565       45.9268148465  TIP3      3825            0.0000000000
     36376      4026  TIP3      OH2             9.8292254713      -10.4696333920       42.6848537221  TIP3      3826            0.0000000000
     36377      4026  TIP3      H1              9.4971484900       -9.5724972610       42.8869103353  TIP3      3826            0.0000000000
     36378      4026  TIP3      H2             10.6649842682      -10.2611706631       42.2136389145  TIP3      3826            0.0000000000
     36379      4027  TIP3      OH2            10.6649137082      -11.9424365592       39.7106497079  TIP3      3827            0.0000000000
     36380      4027  TIP3      H1             11.0602284887      -11.4488836940       40.4509651738  TIP3      3827            0.0000000000
     36381      4027  TIP3      H2             10.9734480646      -12.8429668941       39.8835052083  TIP3      3827            0.0000000000
     36382      4028  TIP3      OH2            13.7567946121      -10.4775362490       44.0001352471  TIP3      3828            0.0000000000
     36383      4028  TIP3      H1             13.0423162522      -10.0938825226       44.5687664700  TIP3      3828            0.0000000000
     36384      4028  TIP3      H2             14.4763906988      -10.5879960975       44.6417693420  TIP3      3828            0.0000000000
     36385      4029  TIP3      OH2             4.8761162513       -9.2914238843       45.8925488844  TIP3      3829            0.0000000000
     36386      4029  TIP3      H1              4.7580508240       -9.7778229999       45.0595129590  TIP3      3829            0.0000000000
     36387      4029  TIP3      H2              5.2600273670       -9.9992933890       46.4557845807  TIP3      3829            0.0000000000
     36388      4030  TIP3      OH2             6.3528450354       -5.8810383836       48.5782990108  TIP3      3830            0.0000000000
     36389      4030  TIP3      H1              6.2662903404       -6.2367971551       47.6674516894  TIP3      3830            0.0000000000
     36390      4030  TIP3      H2              7.1450677423       -6.3583417219       48.8868641572  TIP3      3830            0.0000000000
     36391      4031  TIP3      OH2             4.6139516010      -10.9633511737       49.5388353782  TIP3      3831            0.0000000000
     36392      4031  TIP3      H1              4.9652312101      -11.0153179786       48.6218370609  TIP3      3831            0.0000000000
     36393      4031  TIP3      H2              5.3975722984      -10.6663402721       50.0233667852  TIP3      3831            0.0000000000
     36394      4032  TIP3      OH2            12.4087689460      -10.6527734686       41.6431740903  TIP3      3832            0.0000000000
     36395      4032  TIP3      H1             13.0211093640      -10.5921698253       42.4197302190  TIP3      3832            0.0000000000
     36396      4032  TIP3      H2             12.9422631993      -10.1971543045       40.9424537966  TIP3      3832            0.0000000000
     36397      4033  TIP3      OH2            10.1818104750       -4.3017350228       44.6909186945  TIP3      3833            0.0000000000
     36398      4033  TIP3      H1             10.6933350337       -3.9368127141       45.4313265067  TIP3      3833            0.0000000000
     36399      4033  TIP3      H2              9.5992925998       -3.5642558951       44.4545652773  TIP3      3833            0.0000000000
     36400      4034  TIP3      OH2            16.2683116116      -19.3709258260       42.0092073900  TIP3      3834            0.0000000000
     36401      4034  TIP3      H1             15.3512174277      -19.2346491297       42.3286480593  TIP3      3834            0.0000000000
     36402      4034  TIP3      H2             16.5692817310      -18.4596394137       41.7980875481  TIP3      3834            0.0000000000
     36403      4035  TIP3      OH2             3.8891914141      -10.6807001228       43.5252897808  TIP3      3835            0.0000000000
     36404      4035  TIP3      H1              3.6662779594       -9.8316061244       43.0818337990  TIP3      3835            0.0000000000
     36405      4035  TIP3      H2              3.2906750967      -11.2955646116       43.1023837608  TIP3      3835            0.0000000000
     36406      4036  TIP3      OH2            17.2307223389       -4.9991543902       40.2093819503  TIP3      3836            0.0000000000
     36407      4036  TIP3      H1             17.5231288314       -4.0681960952       40.3306313709  TIP3      3836            0.0000000000
     36408      4036  TIP3      H2             18.0975001428       -5.4564378402       40.2636010177  TIP3      3836            0.0000000000
     36409      4037  TIP3      OH2             0.1567921178       -4.7993843964       48.6348189350  TIP3      3837            0.0000000000
     36410      4037  TIP3      H1              0.8853592624       -5.2787954854       49.0569068018  TIP3      3837            0.0000000000
     36411      4037  TIP3      H2             -0.3276458351       -4.4417547414       49.3888683659  TIP3      3837            0.0000000000
     36412      4038  TIP3      OH2             9.6937491481       -1.5293484453       43.6068245312  TIP3      3838            0.0000000000
     36413      4038  TIP3      H1              9.7383697572       -1.4848537316       42.6286001935  TIP3      3838            0.0000000000
     36414      4038  TIP3      H2              9.5294353728       -0.5837659113       43.8259521463  TIP3      3838            0.0000000000
     36415      4039  TIP3      OH2             3.1538280718       -2.6303108957       45.2588214743  TIP3      3839            0.0000000000
     36416      4039  TIP3      H1              3.3524722299       -2.8091840366       46.2042976076  TIP3      3839            0.0000000000
     36417      4039  TIP3      H2              2.2820555891       -3.0585577024       45.1663974022  TIP3      3839            0.0000000000
     36418      4040  TIP3      OH2            12.6253878144       -2.1799504634       40.4105326824  TIP3      3840            0.0000000000
     36419      4040  TIP3      H1             13.2340624005       -2.9007516292       40.1217279057  TIP3      3840            0.0000000000
     36420      4040  TIP3      H2             12.6337012622       -2.2811444866       41.3924836238  TIP3      3840            0.0000000000
     36421      4041  TIP3      OH2            12.2832555151       -2.1825100870       43.1012723130  TIP3      3841            0.0000000000
     36422      4041  TIP3      H1             11.3439500390       -1.9701718891       43.2992621562  TIP3      3841            0.0000000000
     36423      4041  TIP3      H2             12.4547137485       -2.8625531193       43.7722416869  TIP3      3841            0.0000000000
     36424      4042  TIP3      OH2             5.0025755404      -18.0235268701       49.1280542795  TIP3      3842            0.0000000000
     36425      4042  TIP3      H1              4.1881034349      -17.9005520071       48.5884291854  TIP3      3842            0.0000000000
     36426      4042  TIP3      H2              5.2158013263      -17.1054175312       49.3811201071  TIP3      3842            0.0000000000
     36427      4043  TIP3      OH2            14.0028330230       -9.4011787681       39.9373802336  TIP3      3843            0.0000000000
     36428      4043  TIP3      H1             13.8544642359       -9.3228806265       38.9720013822  TIP3      3843            0.0000000000
     36429      4043  TIP3      H2             14.9770198968       -9.3518190080       39.9568234393  TIP3      3843            0.0000000000
     36430      4044  TIP3      OH2             9.5225521963      -15.8664865973       39.9263348069  TIP3      3844            0.0000000000
     36431      4044  TIP3      H1              9.1547861546      -15.8784536894       40.8154986168  TIP3      3844            0.0000000000
     36432      4044  TIP3      H2              9.1054492904      -16.6880993213       39.5952840103  TIP3      3844            0.0000000000
     36433      4045  TIP3      OH2             5.1554028074      -13.4151987422       45.5618729175  TIP3      3845            0.0000000000
     36434      4045  TIP3      H1              4.2169330385      -13.6072024333       45.3900922111  TIP3      3845            0.0000000000
     36435      4045  TIP3      H2              5.5454275243      -13.4230359102       44.6628806782  TIP3      3845            0.0000000000
     36436      4046  TIP3      OH2            10.8569015010      -12.4452261853       44.0729058122  TIP3      3846            0.0000000000
     36437      4046  TIP3      H1             10.4429303395      -11.6965983027       43.5701577652  TIP3      3846            0.0000000000
     36438      4046  TIP3      H2             11.4418067842      -12.8021625421       43.3868840960  TIP3      3846            0.0000000000
     36439      4047  TIP3      OH2            11.6225920430      -12.8327935463       47.0505248435  TIP3      3847            0.0000000000
     36440      4047  TIP3      H1             11.2499734783      -12.1483570095       46.4631138505  TIP3      3847            0.0000000000
     36441      4047  TIP3      H2             11.7400800693      -13.5623712577       46.4184041657  TIP3      3847            0.0000000000
     36442      4048  TIP3      OH2             5.8377731203      -15.8701931895       38.8839374768  TIP3      3848            0.0000000000
     36443      4048  TIP3      H1              5.4553222597      -16.0795245520       39.7670781462  TIP3      3848            0.0000000000
     36444      4048  TIP3      H2              5.2716093495      -15.1521700135       38.5597359639  TIP3      3848            0.0000000000
     36445      4049  TIP3      OH2            -0.5837625435      -15.7623675669       46.3736843272  TIP3      3849            0.0000000000
     36446      4049  TIP3      H1              0.0553473281      -15.7353686238       47.1131762255  TIP3      3849            0.0000000000
     36447      4049  TIP3      H2             -0.0468881261      -15.4617932560       45.6255178533  TIP3      3849            0.0000000000
     36448      4050  TIP3      OH2             0.5928739101      -15.2344674621       41.4413596765  TIP3      3850            0.0000000000
     36449      4050  TIP3      H1              1.1296346817      -14.8279810110       40.7379937547  TIP3      3850            0.0000000000
     36450      4050  TIP3      H2             -0.0782819659      -14.5277923328       41.5476769769  TIP3      3850            0.0000000000
     36451      4051  TIP3      OH2             8.2445184336      -15.9149444574       45.9066847591  TIP3      3851            0.0000000000
     36452      4051  TIP3      H1              7.4582233792      -15.7815802051       46.4588883517  TIP3      3851            0.0000000000
     36453      4051  TIP3      H2              8.9410477798      -16.1226814301       46.5729231085  TIP3      3851            0.0000000000
     36454      4052  TIP3      OH2             2.3694974270      -14.4261125770       45.4868969958  TIP3      3852            0.0000000000
     36455      4052  TIP3      H1              1.7419539343      -14.0338342930       44.8446259816  TIP3      3852            0.0000000000
     36456      4052  TIP3      H2              2.6613843647      -15.2560902126       45.0425091417  TIP3      3852            0.0000000000
     36457      4053  TIP3      OH2             6.2246114082      -13.8591908905       43.1626287092  TIP3      3853            0.0000000000
     36458      4053  TIP3      H1              7.2016464637      -13.7338881841       43.2326666204  TIP3      3853            0.0000000000
     36459      4053  TIP3      H2              5.9430724134      -13.2040799461       42.5053077272  TIP3      3853            0.0000000000
     36460      4054  TIP3      OH2            12.2856597857      -15.9594433067       49.2423265976  TIP3      3854            0.0000000000
     36461      4054  TIP3      H1             12.2234351743      -16.2347117403       50.1751742559  TIP3      3854            0.0000000000
     36462      4054  TIP3      H2             11.4036652964      -16.2051735205       48.9206737635  TIP3      3854            0.0000000000
     36463      4055  TIP3      OH2             4.4713477702      -12.6294102205       40.2372634806  TIP3      3855            0.0000000000
     36464      4055  TIP3      H1              4.4265279765      -13.0080771205       39.3397103516  TIP3      3855            0.0000000000
     36465      4055  TIP3      H2              5.4494854187      -12.6687420316       40.3256186166  TIP3      3855            0.0000000000
     36466      4056  TIP3      OH2             8.6916690846      -13.3197815537       48.6424876376  TIP3      3856            0.0000000000
     36467      4056  TIP3      H1              8.9993763824      -12.5956018742       48.0625322316  TIP3      3856            0.0000000000
     36468      4056  TIP3      H2              9.5103553102      -13.7302371317       48.9475123323  TIP3      3856            0.0000000000
     36469      4057  TIP3      OH2             3.4711288886      -16.6048308906       44.7138282321  TIP3      3857            0.0000000000
     36470      4057  TIP3      H1              2.9577256409      -17.3308820376       45.1438782479  TIP3      3857            0.0000000000
     36471      4057  TIP3      H2              4.0096123434      -17.0921467269       44.0895680635  TIP3      3857            0.0000000000
     36472      4058  TIP3      OH2             8.2923064670       -8.2579161490       42.6134464197  TIP3      3858            0.0000000000
     36473      4058  TIP3      H1              7.5501268117       -8.7174107564       42.1649651080  TIP3      3858            0.0000000000
     36474      4058  TIP3      H2              7.8219042169       -7.8764410174       43.3986996635  TIP3      3858            0.0000000000
     36475      4059  TIP3      OH2            12.0195015071      -15.6033119136       40.8659498849  TIP3      3859            0.0000000000
     36476      4059  TIP3      H1             11.1928658734      -15.4690519625       40.3556997868  TIP3      3859            0.0000000000
     36477      4059  TIP3      H2             12.2513954246      -14.6644373190       41.0669004030  TIP3      3859            0.0000000000
     36478      4060  TIP3      OH2            12.6384832596      -13.3083859911       41.9241621235  TIP3      3860            0.0000000000
     36479      4060  TIP3      H1             13.2872734162      -13.5599505857       42.5987564214  TIP3      3860            0.0000000000
     36480      4060  TIP3      H2             12.9613006797      -12.4145127752       41.7177046383  TIP3      3860            0.0000000000
     36481      4061  TIP3      OH2             3.2106459508       -8.6645127930       48.0002872299  TIP3      3861            0.0000000000
     36482      4061  TIP3      H1              3.7575612434       -8.6773206677       47.1818650199  TIP3      3861            0.0000000000
     36483      4061  TIP3      H2              3.8750663083       -8.9129281700       48.6661994738  TIP3      3861            0.0000000000
     36484      4062  TIP3      OH2            10.2866804675       -6.7374908963       41.9039673994  TIP3      3862            0.0000000000
     36485      4062  TIP3      H1              9.7947768033       -5.8868282367       42.0444981882  TIP3      3862            0.0000000000
     36486      4062  TIP3      H2              9.5547938335       -7.3929232995       41.9811432925  TIP3      3862            0.0000000000
     36487      4063  TIP3      OH2            17.3667645890      -13.4538247413       42.0309972712  TIP3      3863            0.0000000000
     36488      4063  TIP3      H1             16.9468360841      -13.5293860883       41.1406088110  TIP3      3863            0.0000000000
     36489      4063  TIP3      H2             17.6926277964      -12.5285430992       41.9940542171  TIP3      3863            0.0000000000
     36490      4064  TIP3      OH2            15.6848494242       -4.4952045269       42.3680379898  TIP3      3864            0.0000000000
     36491      4064  TIP3      H1             15.5275696531       -5.2042573865       42.9971042897  TIP3      3864            0.0000000000
     36492      4064  TIP3      H2             16.1103194520       -4.9518341317       41.6119345428  TIP3      3864            0.0000000000
     36493      4065  TIP3      OH2            13.0632578353       -9.7887753574       48.9753632238  TIP3      3865            0.0000000000
     36494      4065  TIP3      H1             12.1052159642       -9.9603155936       49.0619611139  TIP3      3865            0.0000000000
     36495      4065  TIP3      H2             13.3060107311      -10.3307663117       48.1972606202  TIP3      3865            0.0000000000
     36496      4066  TIP3      OH2             5.3949600640       -5.3492547654       45.9582791416  TIP3      3866            0.0000000000
     36497      4066  TIP3      H1              5.9338346452       -4.5380632082       45.9451016785  TIP3      3866            0.0000000000
     36498      4066  TIP3      H2              4.7530271831       -5.1454897768       45.2718506127  TIP3      3866            0.0000000000
     36499      4067  TIP3      OH2             1.9902181798      -10.0232965725       40.2497203165  TIP3      3867            0.0000000000
     36500      4067  TIP3      H1              2.4019956065       -9.7718484784       41.1019150066  TIP3      3867            0.0000000000
     36501      4067  TIP3      H2              1.0585608891      -10.1625638314       40.4897060174  TIP3      3867            0.0000000000
     36502      4068  TIP3      OH2             7.0075158483       -7.3402065132       44.7169582747  TIP3      3868            0.0000000000
     36503      4068  TIP3      H1              6.3955363753       -6.8024624178       45.2452961704  TIP3      3868            0.0000000000
     36504      4068  TIP3      H2              7.3140747795       -8.0062053033       45.3518632795  TIP3      3868            0.0000000000
     36505      4069  TIP3      OH2             5.8159804243       -2.8186093025       44.4805419945  TIP3      3869            0.0000000000
     36506      4069  TIP3      H1              4.8494656459       -2.7874739059       44.6439105147  TIP3      3869            0.0000000000
     36507      4069  TIP3      H2              6.0980259024       -1.9732858711       44.8781601585  TIP3      3869            0.0000000000
     36508      4070  TIP3      OH2            13.5548161418       -6.4097993635       40.3608364007  TIP3      3870            0.0000000000
     36509      4070  TIP3      H1             13.7164277351       -6.7381466033       41.2748978888  TIP3      3870            0.0000000000
     36510      4070  TIP3      H2             12.6184858965       -6.6409699076       40.2637122037  TIP3      3870            0.0000000000
     36511      4071  TIP3      OH2            17.7792713865       -2.2763743224       40.6406979988  TIP3      3871            0.0000000000
     36512      4071  TIP3      H1             18.1624667191       -1.6380952967       40.0339936727  TIP3      3871            0.0000000000
     36513      4071  TIP3      H2             17.0294235325       -1.7742126300       41.0358173125  TIP3      3871            0.0000000000
     36514      4072  TIP3      OH2            14.3115104761       -7.8112394834       42.6659051515  TIP3      3872            0.0000000000
     36515      4072  TIP3      H1             14.0357319124       -8.7105327358       42.9002326586  TIP3      3872            0.0000000000
     36516      4072  TIP3      H2             15.2742783251       -7.9311867286       42.5023739772  TIP3      3872            0.0000000000
     36517      4073  TIP3      OH2             7.4593325733       -4.8515799206       38.8456006633  TIP3      3873            0.0000000000
     36518      4073  TIP3      H1              7.5348421775       -5.5718375906       38.1866595928  TIP3      3873            0.0000000000
     36519      4073  TIP3      H2              6.8828377634       -5.2923991875       39.5020552126  TIP3      3873            0.0000000000
     36520      4074  TIP3      OH2             6.1798598552       -5.9253415712       41.2644975672  TIP3      3874            0.0000000000
     36521      4074  TIP3      H1              6.9375101604       -6.3648780832       41.6768990569  TIP3      3874            0.0000000000
     36522      4074  TIP3      H2              6.2998450138       -4.9991807313       41.5807689141  TIP3      3874            0.0000000000
     36523      4075  TIP3      OH2             3.2969879390       -8.4528820261       42.0018330776  TIP3      3875            0.0000000000
     36524      4075  TIP3      H1              2.4557159751       -8.1500282888       42.3863674843  TIP3      3875            0.0000000000
     36525      4075  TIP3      H2              3.5531564158       -7.6574657654       41.4854065285  TIP3      3875            0.0000000000
     36526      4076  TIP3      OH2            11.5194996798      -16.6369106016       43.3440965751  TIP3      3876            0.0000000000
     36527      4076  TIP3      H1             11.7776189913      -16.2841445230       42.4686901645  TIP3      3876            0.0000000000
     36528      4076  TIP3      H2             11.8624682816      -15.9485877484       43.9489878397  TIP3      3876            0.0000000000
     36529      4077  TIP3      OH2             9.0753724920       -4.3514950806       41.9870652854  TIP3      3877            0.0000000000
     36530      4077  TIP3      H1              8.3188028956       -3.8410115725       42.3374427908  TIP3      3877            0.0000000000
     36531      4077  TIP3      H2              9.6976571601       -3.6683975567       41.7114299753  TIP3      3877            0.0000000000
     36532      4078  TIP3      OH2             8.9794460140      -14.4541897987       43.7376651707  TIP3      3878            0.0000000000
     36533      4078  TIP3      H1              9.5408015115      -13.6839892042       43.9719092187  TIP3      3878            0.0000000000
     36534      4078  TIP3      H2              8.8783209353      -14.9154748036       44.6011951049  TIP3      3878            0.0000000000
     36535      4079  TIP3      OH2             9.3569842876      -17.7916971548       44.4487140826  TIP3      3879            0.0000000000
     36536      4079  TIP3      H1              8.9609676753      -17.1497085616       45.0751240309  TIP3      3879            0.0000000000
     36537      4079  TIP3      H2             10.1291287680      -17.2606378198       44.1103988202  TIP3      3879            0.0000000000
     36538      4080  TIP3      OH2             6.4917723654       -3.3787388197       41.8631538988  TIP3      3880            0.0000000000
     36539      4080  TIP3      H1              6.6006705140       -2.6235111099       41.2407810718  TIP3      3880            0.0000000000
     36540      4080  TIP3      H2              6.0725891870       -2.9203786656       42.6202002635  TIP3      3880            0.0000000000
     36541      4081  TIP3      OH2             5.1078588439      -16.4685310840       41.4363792695  TIP3      3881            0.0000000000
     36542      4081  TIP3      H1              5.1389529244      -15.7483648562       42.0888432306  TIP3      3881            0.0000000000
     36543      4081  TIP3      H2              5.9517661087      -16.9317485194       41.6221840329  TIP3      3881            0.0000000000
     36544      4082  TIP3      OH2            14.2897466988      -11.6798231584       47.4324308909  TIP3      3882            0.0000000000
     36545      4082  TIP3      H1             13.4618435694      -12.1449648571       47.6535289193  TIP3      3882            0.0000000000
     36546      4082  TIP3      H2             14.9030581464      -12.1309972279       48.0669931811  TIP3      3882            0.0000000000
     36547      4083  TIP3      OH2             3.4513852579       -6.1787063649       40.3513553817  TIP3      3883            0.0000000000
     36548      4083  TIP3      H1              4.1707576054       -5.7037363409       40.8081125607  TIP3      3883            0.0000000000
     36549      4083  TIP3      H2              4.0101830589       -6.7941181617       39.8040641265  TIP3      3883            0.0000000000
     36550      4084  TIP3      OH2             1.5164496954      -13.1559477500       39.6537593848  TIP3      3884            0.0000000000
     36551      4084  TIP3      H1              2.2097192567      -12.5652432796       40.0085037572  TIP3      3884            0.0000000000
     36552      4084  TIP3      H2              0.8719223125      -12.5359130015       39.2825136712  TIP3      3884            0.0000000000
     36553      4085  TIP3      OH2            15.3437497635       -2.3651704541       49.6037440023  TIP3      3885            0.0000000000
     36554      4085  TIP3      H1             15.4331945534       -1.6146771430       48.9806431460  TIP3      3885            0.0000000000
     36555      4085  TIP3      H2             16.1712931099       -2.3540279711       50.0924813685  TIP3      3885            0.0000000000
     36556      4086  TIP3      OH2             2.6451546200      -18.2358416140       48.0073041814  TIP3      3886            0.0000000000
     36557      4086  TIP3      H1              2.4921204114      -18.5952809001       47.1016598441  TIP3      3886            0.0000000000
     36558      4086  TIP3      H2              2.5510453887      -19.0700686131       48.5192038846  TIP3      3886            0.0000000000
     36559      4087  TIP3      OH2             1.2691207755       -4.7528833761       44.5373004885  TIP3      3887            0.0000000000
     36560      4087  TIP3      H1              0.5075810271       -4.1896180593       44.7325157521  TIP3      3887            0.0000000000
     36561      4087  TIP3      H2              1.6212525708       -4.2932992191       43.7562845007  TIP3      3887            0.0000000000
     36562      4088  TIP3      OH2             9.6069416964       -3.0835964574       38.8413972752  TIP3      3888            0.0000000000
     36563      4088  TIP3      H1              8.9972206831       -3.8423132189       38.9848780341  TIP3      3888            0.0000000000
     36564      4088  TIP3      H2             10.3994272072       -3.5229365602       38.4793960672  TIP3      3888            0.0000000000
     36565      4089  TIP3      OH2            14.0505441082       -3.9762443564       38.9186380774  TIP3      3889            0.0000000000
     36566      4089  TIP3      H1             14.1319026159       -4.8226064791       39.4088812976  TIP3      3889            0.0000000000
     36567      4089  TIP3      H2             14.8660193308       -3.9668111243       38.3911397850  TIP3      3889            0.0000000000
     36568      4090  TIP3      OH2             5.2152074171       -7.8136637273       38.9762690766  TIP3      3890            0.0000000000
     36569      4090  TIP3      H1              5.6360815697       -8.2840293739       39.7210996999  TIP3      3890            0.0000000000
     36570      4090  TIP3      H2              6.0070326100       -7.6088477560       38.4334620671  TIP3      3890            0.0000000000
     36571      4091  TIP3      OH2            10.4538482382       -6.2813198343       38.6019833129  TIP3      3891            0.0000000000
     36572      4091  TIP3      H1             10.1291363616       -6.5318696498       39.4822762510  TIP3      3891            0.0000000000
     36573      4091  TIP3      H2             10.5572699868       -7.1872266967       38.2420629010  TIP3      3891            0.0000000000
     36574      4092  TIP3      OH2             6.3543921009       -9.6457639838       41.3207898529  TIP3      3892            0.0000000000
     36575      4092  TIP3      H1              5.5769997221      -10.1634879131       41.5633424208  TIP3      3892            0.0000000000
     36576      4092  TIP3      H2              6.9169836467      -10.2797706753       40.8401577749  TIP3      3892            0.0000000000
     36577      4093  TIP3      OH2             7.0411825753      -12.6094567573       39.8166258347  TIP3      3893            0.0000000000
     36578      4093  TIP3      H1              6.8974690693      -11.9675608908       39.0777160213  TIP3      3893            0.0000000000
     36579      4093  TIP3      H2              8.0063446955      -12.6360496882       39.8269890129  TIP3      3893            0.0000000000
     36580      4094  TIP3      OH2            16.6130677177       -9.3521472510       38.8585406473  TIP3      3894            0.0000000000
     36581      4094  TIP3      H1             16.5354396367       -9.6930422324       37.9492378265  TIP3      3894            0.0000000000
     36582      4094  TIP3      H2             16.5807629802       -8.3773608982       38.6911457016  TIP3      3894            0.0000000000
     36583      4095  TIP3      OH2             7.0775564273       -1.0382965466       40.7282539002  TIP3      3895            0.0000000000
     36584      4095  TIP3      H1              8.0179745214       -1.0549134395       40.9536861276  TIP3      3895            0.0000000000
     36585      4095  TIP3      H2              7.0918163214       -0.3568086626       40.0340607422  TIP3      3895            0.0000000000
     36586      4096  TIP3      OH2             0.7987898994       -6.3977644973       40.0763897784  TIP3      3896            0.0000000000
     36587      4096  TIP3      H1              1.7736976532       -6.2699045105       40.1852639176  TIP3      3896            0.0000000000
     36588      4096  TIP3      H2              0.8198196486       -7.2057354213       39.5280449331  TIP3      3896            0.0000000000
     36589      4097  TIP3      OH2            -0.4656799321       -1.3593419950       44.6931468501  TIP3      3897            0.0000000000
     36590      4097  TIP3      H1             -1.3083401569       -1.8323973268       44.5415948957  TIP3      3897            0.0000000000
     36591      4097  TIP3      H2             -0.1929135537       -1.7583299640       45.5456092934  TIP3      3897            0.0000000000
     36592      4098  TIP3      OH2             0.3481824585       -2.8846377326       46.7857828916  TIP3      3898            0.0000000000
     36593      4098  TIP3      H1              0.1277858816       -3.7224615268       47.2611558515  TIP3      3898            0.0000000000
     36594      4098  TIP3      H2              0.8643310949       -2.4190301270       47.4789402989  TIP3      3898            0.0000000000
     36595      4099  TIP3      OH2            17.0527332978       -8.2986742744       42.5394935413  TIP3      3899            0.0000000000
     36596      4099  TIP3      H1             17.8854259399       -7.8079248852       42.6975632024  TIP3      3899            0.0000000000
     36597      4099  TIP3      H2             17.0703415629       -8.9375803440       43.2949646280  TIP3      3899            0.0000000000
     36598      4100  TIP3      OH2            17.4909555235       -9.9631663882       44.7571115532  TIP3      3900            0.0000000000
     36599      4100  TIP3      H1             16.7926418886      -10.6064995671       45.0202547787  TIP3      3900            0.0000000000
     36600      4100  TIP3      H2             18.1561386499      -10.0695179439       45.4629546756  TIP3      3900            0.0000000000
     36601      4101  TIP3      OH2            17.7293350396       -7.2962107832       49.5961466446  TIP3      3901            0.0000000000
     36602      4101  TIP3      H1             18.3560303234       -7.9604774210       49.2498174938  TIP3      3901            0.0000000000
     36603      4101  TIP3      H2             17.5521446978       -6.6912187537       48.8575782914  TIP3      3901            0.0000000000
     36604      4102  TIP3      OH2            17.7751815750      -10.6893197438       41.1209255663  TIP3      3902            0.0000000000
     36605      4102  TIP3      H1             17.1681981460      -10.6063752064       40.3638703448  TIP3      3902            0.0000000000
     36606      4102  TIP3      H2             17.6182267623       -9.8161905552       41.5358384172  TIP3      3902            0.0000000000
     36607      4103  TIP3      OH2            16.3059624686      -13.2995720019       39.3517042381  TIP3      3903            0.0000000000
     36608      4103  TIP3      H1             16.5087447213      -12.6924658944       38.6265742132  TIP3      3903            0.0000000000
     36609      4103  TIP3      H2             15.9629461333      -14.0941401631       38.9065618043  TIP3      3903            0.0000000000
     36610      4104  TIP3      OH2            15.8960319992      -12.1309741026       45.2162022178  TIP3      3904            0.0000000000
     36611      4104  TIP3      H1             15.4246961052      -12.8661745197       44.7579236727  TIP3      3904            0.0000000000
     36612      4104  TIP3      H2             15.3524865333      -12.0269666348       46.0228724306  TIP3      3904            0.0000000000
     36613      4105  TIP3      OH2             0.4847270342       -9.4751218852       49.1274731615  TIP3      3905            0.0000000000
     36614      4105  TIP3      H1              0.6746985384       -9.8775840347       48.2617848248  TIP3      3905            0.0000000000
     36615      4105  TIP3      H2              1.2209339282       -9.7969695346       49.6823484441  TIP3      3905            0.0000000000
     36616      4106  TIP3      OH2            15.5459614354      -15.8788781235       38.5592705148  TIP3      3906            0.0000000000
     36617      4106  TIP3      H1             15.8479296500      -16.2844543017       39.3916859086  TIP3      3906            0.0000000000
     36618      4106  TIP3      H2             14.6478455216      -16.2716088679       38.4433943847  TIP3      3906            0.0000000000
     36619      4107  TIP3      OH2            14.9363375317      -14.0517920334       43.5932275940  TIP3      3907            0.0000000000
     36620      4107  TIP3      H1             15.0976548362      -14.9929865092       43.8332530411  TIP3      3907            0.0000000000
     36621      4107  TIP3      H2             15.7591783267      -13.8849930978       43.0935156854  TIP3      3907            0.0000000000
     36622      4108  TIP3      OH2            15.6887624051      -13.4565463436       48.8086415192  TIP3      3908            0.0000000000
     36623      4108  TIP3      H1             16.6640537902      -13.5378501264       48.8522816138  TIP3      3908            0.0000000000
     36624      4108  TIP3      H2             15.4647261601      -14.3685512877       49.0922210009  TIP3      3908            0.0000000000
     36625      4109  TIP3      OH2            15.6222377257      -16.7440696195       43.8580444796  TIP3      3909            0.0000000000
     36626      4109  TIP3      H1             15.9682802183      -17.1835816016       44.6618701475  TIP3      3909            0.0000000000
     36627      4109  TIP3      H2             15.0724111466      -17.4806771246       43.5196766225  TIP3      3909            0.0000000000
     36628      4110  TIP3      OH2             1.0596935602      -16.0986717446       48.7480465346  TIP3      3910            0.0000000000
     36629      4110  TIP3      H1              1.4762573959      -16.9603515393       48.5237802689  TIP3      3910            0.0000000000
     36630      4110  TIP3      H2              1.7991110856      -15.6342732124       49.1802181368  TIP3      3910            0.0000000000
     36631      4111  TIP3      OH2            -0.4921598472      -13.2833654935       49.6467858119  TIP3      3911            0.0000000000
     36632      4111  TIP3      H1              0.0257887751      -13.6442250867       48.9037481533  TIP3      3911            0.0000000000
     36633      4111  TIP3      H2             -0.1166540685      -12.3924278148       49.7006404782  TIP3      3911            0.0000000000
     36634      4112  TIP3      OH2            17.3094964112      -16.9668704481       40.6094089687  TIP3      3912            0.0000000000
     36635      4112  TIP3      H1             17.6936019266      -17.4347563852       39.8369688665  TIP3      3912            0.0000000000
     36636      4112  TIP3      H2             18.1112841635      -16.5081673080       40.9310907608  TIP3      3912            0.0000000000
     36637      4113  TIP3      OH2            -0.3483674251      -16.9368018235       43.3104307290  TIP3      3913            0.0000000000
     36638      4113  TIP3      H1             -1.2658265332      -16.6297171039       43.3798847561  TIP3      3913            0.0000000000
     36639      4113  TIP3      H2              0.0009806086      -16.3353323960       42.6241529129  TIP3      3913            0.0000000000
     36640      4114  TIP3      OH2            14.3908857163       -1.8256244409       45.4662939670  TIP3      3914            0.0000000000
     36641      4114  TIP3      H1             15.1767311556       -2.1127796965       44.9629272729  TIP3      3914            0.0000000000
     36642      4114  TIP3      H2             14.7600206868       -1.2321994011       46.1382650377  TIP3      3914            0.0000000000
     36643      4115  TIP3      OH2             1.9187617865       -1.8451466416       48.9000602690  TIP3      3915            0.0000000000
     36644      4115  TIP3      H1              2.1603581930       -1.7044863759       49.8431746299  TIP3      3915            0.0000000000
     36645      4115  TIP3      H2              2.7070950465       -2.3438068762       48.5828996551  TIP3      3915            0.0000000000
     36646      4116  TIP3      OH2             3.9355026665       -3.2510754121       47.8101350792  TIP3      3916            0.0000000000
     36647      4116  TIP3      H1              3.8743532648       -4.2182463256       47.9216292704  TIP3      3916            0.0000000000
     36648      4116  TIP3      H2              4.8546639138       -3.0859034616       48.1166393450  TIP3      3916            0.0000000000
     36649      4117  TIP3      OH2             6.3784318654       -2.9412119039       48.7566542651  TIP3      3917            0.0000000000
     36650      4117  TIP3      H1              6.5436218097       -3.9049171298       48.7278296088  TIP3      3917            0.0000000000
     36651      4117  TIP3      H2              6.3899780660       -2.7625037882       49.7031582641  TIP3      3917            0.0000000000
     36652      4118  TIP3      OH2            10.0391742536      -17.0857396034       47.8230691648  TIP3      3918            0.0000000000
     36653      4118  TIP3      H1              9.2885245785      -17.6022401465       48.1726712519  TIP3      3918            0.0000000000
     36654      4118  TIP3      H2             10.7594869720      -17.7193263155       47.9934915290  TIP3      3918            0.0000000000
     36655      4119  TIP3      OH2            15.1514029509      -18.9660202299       47.8304028142  TIP3      3919            0.0000000000
     36656      4119  TIP3      H1             15.7155792256      -18.5000020285       47.1619161477  TIP3      3919            0.0000000000
     36657      4119  TIP3      H2             14.2750900101      -18.5448068509       47.6972243967  TIP3      3919            0.0000000000
     36658      4120  TIP3      OH2            16.8150109503      -18.0397257884       45.9028315331  TIP3      3920            0.0000000000
     36659      4120  TIP3      H1             17.4828351983      -18.6015868160       45.4405227901  TIP3      3920            0.0000000000
     36660      4120  TIP3      H2             17.3419337425      -17.2273766793       46.0934717743  TIP3      3920            0.0000000000
     36661      4121  TIP3      OH2             2.2694865630      -18.9405281496       45.4609004336  TIP3      3921            0.0000000000
     36662      4121  TIP3      H1              1.4324263179      -19.0757673082       44.9637352155  TIP3      3921            0.0000000000
     36663      4121  TIP3      H2              2.6473713257      -19.8476880400       45.4100935419  TIP3      3921            0.0000000000
     36664      4122  TIP3      OH2             1.2640447841      -18.8641187503       41.5903941740  TIP3      3922            0.0000000000
     36665      4122  TIP3      H1              1.5654098455      -18.2607891217       40.8928486587  TIP3      3922            0.0000000000
     36666      4122  TIP3      H2              0.6269238689      -18.2997054292       42.0743775616  TIP3      3922            0.0000000000
     36667      4123  TIP3      OH2             6.6804253801      -19.3420734533       45.7594784186  TIP3      3923            0.0000000000
     36668      4123  TIP3      H1              7.3604676081      -18.9341033728       45.2182268379  TIP3      3923            0.0000000000
     36669      4123  TIP3      H2              7.0002565805      -19.1719049484       46.6681311734  TIP3      3923            0.0000000000
     36670      4124  TIP3      OH2            12.4805950662      -18.4863792203       46.8760212595  TIP3      3924            0.0000000000
     36671      4124  TIP3      H1             12.3158460120      -18.3807271794       45.9334393212  TIP3      3924            0.0000000000
     36672      4124  TIP3      H2             12.0638846216      -19.3554982664       47.0842652255  TIP3      3924            0.0000000000
     36673      4125  TIP3      OH2            13.9839902384      -18.8214287642       43.2214549400  TIP3      3925            0.0000000000
     36674      4125  TIP3      H1             13.3154357895      -18.4678310390       42.6226354533  TIP3      3925            0.0000000000
     36675      4125  TIP3      H2             13.5592490684      -19.6585856182       43.5081737040  TIP3      3925            0.0000000000
     36676      4126  TIP3      OH2             1.1350426205       -2.8745476407       42.5584870796  TIP3      3926            0.0000000000
     36677      4126  TIP3      H1              0.1744915719       -2.7418541305       42.4800613561  TIP3      3926            0.0000000000
     36678      4126  TIP3      H2              1.4354844716       -2.0360197983       42.1488993386  TIP3      3926            0.0000000000
     36679      4127  TIP3      OH2             2.4812813715      -16.7239880106       39.8981322924  TIP3      3927            0.0000000000
     36680      4127  TIP3      H1              3.0975627473      -17.3516268027       39.4716358449  TIP3      3927            0.0000000000
     36681      4127  TIP3      H2              3.0370510603      -16.3303818069       40.5901535979  TIP3      3927            0.0000000000
     36682      4128  TIP3      OH2             8.0008096665      -16.7221876214       42.1848039048  TIP3      3928            0.0000000000
     36683      4128  TIP3      H1              8.3415581901      -17.2762374851       42.9088216264  TIP3      3928            0.0000000000
     36684      4128  TIP3      H2              8.1099338891      -15.8395799699       42.5949653225  TIP3      3928            0.0000000000
     36685      4129  TIP3      OH2            10.0627717979       -1.5781506602       40.9443913296  TIP3      3929            0.0000000000
     36686      4129  TIP3      H1             11.0068226821       -1.5540286349       40.6794341408  TIP3      3929            0.0000000000
     36687      4129  TIP3      H2              9.7197041974       -2.0379013894       40.1426513730  TIP3      3929            0.0000000000
     36688      4130  TIP3      OH2            16.5113840461       -2.4625014193       43.7709656443  TIP3      3930            0.0000000000
     36689      4130  TIP3      H1             16.2104324470       -3.2148469465       43.2090982133  TIP3      3930            0.0000000000
     36690      4130  TIP3      H2             16.3886347822       -1.7046808601       43.1547819079  TIP3      3930            0.0000000000
     36691      4131  TIP3      OH2             2.1202097351       -2.1664403865       39.3727498727  TIP3      3931            0.0000000000
     36692      4131  TIP3      H1              1.9954725822       -1.7007470340       40.2181569409  TIP3      3931            0.0000000000
     36693      4131  TIP3      H2              2.9776951821       -2.5938704219       39.5356999631  TIP3      3931            0.0000000000
     36694      4132  TIP3      OH2            30.3918114773       -9.5700458214       45.5430484500  TIP3      3932            0.0000000000
     36695      4132  TIP3      H1             30.1725970239       -8.6053811045       45.5651877405  TIP3      3932            0.0000000000
     36696      4132  TIP3      H2             29.6052546587       -9.8682282428       45.0485876155  TIP3      3932            0.0000000000
     36697      4133  TIP3      OH2            29.0334357339      -10.2518519413       48.8880302847  TIP3      3933            0.0000000000
     36698      4133  TIP3      H1             29.0650967581      -10.6710886819       49.7810845373  TIP3      3933            0.0000000000
     36699      4133  TIP3      H2             28.3286166965      -10.7722903944       48.4639851219  TIP3      3933            0.0000000000
     36700      4134  TIP3      OH2            32.2152332374       -7.6720887850       47.1092460935  TIP3      3934            0.0000000000
     36701      4134  TIP3      H1             31.7339285868       -8.1629384590       47.8124904061  TIP3      3934            0.0000000000
     36702      4134  TIP3      H2             32.6241028362       -6.9748425449       47.6861955680  TIP3      3934            0.0000000000
     36703      4135  TIP3      OH2            22.4098452081       -5.8922777600       48.9975311670  TIP3      3935            0.0000000000
     36704      4135  TIP3      H1             21.7253239835       -6.5634429548       49.1704671217  TIP3      3935            0.0000000000
     36705      4135  TIP3      H2             23.1972815047       -6.2749182695       49.4173815411  TIP3      3935            0.0000000000
     36706      4136  TIP3      OH2            19.3475848446      -12.8403501416       44.4730099568  TIP3      3936            0.0000000000
     36707      4136  TIP3      H1             18.9307123268      -11.9697360709       44.4826866950  TIP3      3936            0.0000000000
     36708      4136  TIP3      H2             18.5643363529      -13.3810130365       44.2872387911  TIP3      3936            0.0000000000
     36709      4137  TIP3      OH2            19.6861107690      -10.5087045455       46.6463362697  TIP3      3937            0.0000000000
     36710      4137  TIP3      H1             19.7544965696      -11.4786722588       46.7933428991  TIP3      3937            0.0000000000
     36711      4137  TIP3      H2             20.1170386330      -10.3681566744       45.7897689242  TIP3      3937            0.0000000000
     36712      4138  TIP3      OH2            29.8013419128       -2.0726611919       47.5577508386  TIP3      3938            0.0000000000
     36713      4138  TIP3      H1             30.5767439317       -2.5724008943       47.1972746348  TIP3      3938            0.0000000000
     36714      4138  TIP3      H2             29.3632388907       -2.7931907678       48.0254044004  TIP3      3938            0.0000000000
     36715      4139  TIP3      OH2            28.0234281308       -7.5518218445       50.0588217573  TIP3      3939            0.0000000000
     36716      4139  TIP3      H1             28.3606808163       -8.2372854626       49.4587167764  TIP3      3939            0.0000000000
     36717      4139  TIP3      H2             28.6571297035       -7.6409826830       50.7937300303  TIP3      3939            0.0000000000
     36718      4140  TIP3      OH2            30.3784529773      -13.4324301312       49.7752205935  TIP3      3940            0.0000000000
     36719      4140  TIP3      H1             30.3831090495      -14.2034462264       50.3695762918  TIP3      3940            0.0000000000
     36720      4140  TIP3      H2             29.9995392636      -13.7821851809       48.9569081925  TIP3      3940            0.0000000000
     36721      4141  TIP3      OH2            24.0428957681      -15.5291314456       47.0699621558  TIP3      3941            0.0000000000
     36722      4141  TIP3      H1             24.2403722566      -14.7239920164       46.5453752903  TIP3      3941            0.0000000000
     36723      4141  TIP3      H2             23.5944769946      -16.0834977632       46.4072959967  TIP3      3941            0.0000000000
     36724      4142  TIP3      OH2            31.3022848409      -15.0920236109       45.3227696258  TIP3      3942            0.0000000000
     36725      4142  TIP3      H1             31.7486346099      -15.5774175150       46.0597671864  TIP3      3942            0.0000000000
     36726      4142  TIP3      H2             32.0054514235      -14.4893774887       45.0518474458  TIP3      3942            0.0000000000
     36727      4143  TIP3      OH2            20.1283687251      -13.3256670868       47.5898492990  TIP3      3943            0.0000000000
     36728      4143  TIP3      H1             20.8421732607      -13.6224893961       48.1789145641  TIP3      3943            0.0000000000
     36729      4143  TIP3      H2             20.4732025723      -13.6339507806       46.7206998364  TIP3      3943            0.0000000000
     36730      4144  TIP3      OH2            25.3448183209      -11.4391552884       47.1698939226  TIP3      3944            0.0000000000
     36731      4144  TIP3      H1             26.1297372449      -11.9513777844       47.4680987606  TIP3      3944            0.0000000000
     36732      4144  TIP3      H2             24.9166979028      -12.1220826283       46.6038522027  TIP3      3944            0.0000000000
     36733      4145  TIP3      OH2            29.6776077584       -7.1681295366       44.3993633823  TIP3      3945            0.0000000000
     36734      4145  TIP3      H1             29.3222353218       -7.1098046915       43.4888107549  TIP3      3945            0.0000000000
     36735      4145  TIP3      H2             29.4770247164       -6.2561353820       44.7214146573  TIP3      3945            0.0000000000
     36736      4146  TIP3      OH2            32.7610667542      -15.8081199223       47.4487406004  TIP3      3946            0.0000000000
     36737      4146  TIP3      H1             32.6754249051      -16.2139325641       48.3230831459  TIP3      3946            0.0000000000
     36738      4146  TIP3      H2             33.7170788556      -15.8661940951       47.3333056030  TIP3      3946            0.0000000000
     36739      4147  TIP3      OH2            22.3336952695      -14.4827996750       48.9290868064  TIP3      3947            0.0000000000
     36740      4147  TIP3      H1             22.6517157168      -13.5720861254       48.8624730792  TIP3      3947            0.0000000000
     36741      4147  TIP3      H2             22.8165875646      -14.9163694306       48.1933801793  TIP3      3947            0.0000000000
     36742      4148  TIP3      OH2            19.7075653685       -7.3423538996       42.6191652670  TIP3      3948            0.0000000000
     36743      4148  TIP3      H1             19.5733281141       -6.8431801869       41.7708204892  TIP3      3948            0.0000000000
     36744      4148  TIP3      H2             19.7909078603       -6.6352376338       43.2880797012  TIP3      3948            0.0000000000
     36745      4149  TIP3      OH2            33.4031058086       -6.1411997514       48.9893209665  TIP3      3949            0.0000000000
     36746      4149  TIP3      H1             33.0233560267       -6.4762073256       49.8270381820  TIP3      3949            0.0000000000
     36747      4149  TIP3      H2             33.5392697341       -5.2119041167       49.2262936765  TIP3      3949            0.0000000000
     36748      4150  TIP3      OH2            26.6489617249      -18.9843973191       48.1833762045  TIP3      3950            0.0000000000
     36749      4150  TIP3      H1             26.6335814254      -19.9597346112       48.1571580080  TIP3      3950            0.0000000000
     36750      4150  TIP3      H2             25.7877774926      -18.7668729245       48.6009881754  TIP3      3950            0.0000000000
     36751      4151  TIP3      OH2            31.4063791027       -3.6834519620       46.2404685556  TIP3      3951            0.0000000000
     36752      4151  TIP3      H1             31.6571938658       -4.5265332149       45.7969170083  TIP3      3951            0.0000000000
     36753      4151  TIP3      H2             32.2083960084       -3.1450613488       46.0372145854  TIP3      3951            0.0000000000
     36754      4152  TIP3      OH2            32.7967747026       -5.6812235428       44.9010635020  TIP3      3952            0.0000000000
     36755      4152  TIP3      H1             32.6203641328       -6.3422583724       44.2120291997  TIP3      3952            0.0000000000
     36756      4152  TIP3      H2             33.0016106551       -6.2423903436       45.6735406449  TIP3      3952            0.0000000000
     36757      4153  TIP3      OH2            28.8507841682      -10.2183949562       42.8682445474  TIP3      3953            0.0000000000
     36758      4153  TIP3      H1             28.3236290211       -9.4097169978       42.7285233237  TIP3      3953            0.0000000000
     36759      4153  TIP3      H2             29.6976532666       -9.9737242581       42.4337741029  TIP3      3953            0.0000000000
     36760      4154  TIP3      OH2            29.1204221883      -11.3497331311       39.9989389033  TIP3      3954            0.0000000000
     36761      4154  TIP3      H1             29.7695094684      -10.8893054898       40.5650573208  TIP3      3954            0.0000000000
     36762      4154  TIP3      H2             29.2956051227      -12.2731041591       40.2299530464  TIP3      3954            0.0000000000
     36763      4155  TIP3      OH2            32.6841499258       -9.8982263310       44.0438975085  TIP3      3955            0.0000000000
     36764      4155  TIP3      H1             31.7524385252      -10.0029797555       44.3389148989  TIP3      3955            0.0000000000
     36765      4155  TIP3      H2             33.0995928684      -10.7664127411       44.2266484414  TIP3      3955            0.0000000000
     36766      4156  TIP3      OH2            23.9036239534       -9.1717378139       45.9922939549  TIP3      3956            0.0000000000
     36767      4156  TIP3      H1             23.5192656248       -9.6649453299       45.2421924210  TIP3      3956            0.0000000000
     36768      4156  TIP3      H2             24.2028439886       -9.9099430367       46.5570315830  TIP3      3956            0.0000000000
     36769      4157  TIP3      OH2            25.4113278705       -6.0126408074       48.4658853143  TIP3      3957            0.0000000000
     36770      4157  TIP3      H1             26.0335374947       -6.0215350328       47.7274417037  TIP3      3957            0.0000000000
     36771      4157  TIP3      H2             26.0158503831       -6.2128221969       49.1974407189  TIP3      3957            0.0000000000
     36772      4158  TIP3      OH2            23.6120920051      -10.7869683344       49.3140095943  TIP3      3958            0.0000000000
     36773      4158  TIP3      H1             24.2909390925      -11.0811778452       48.6771264551  TIP3      3958            0.0000000000
     36774      4158  TIP3      H2             24.0906298920      -10.8019532802       50.1582583421  TIP3      3958            0.0000000000
     36775      4159  TIP3      OH2            31.2485442209      -10.5297841496       41.7486472298  TIP3      3959            0.0000000000
     36776      4159  TIP3      H1             31.8717393732      -10.1619090290       42.4027307596  TIP3      3959            0.0000000000
     36777      4159  TIP3      H2             31.6775226402      -10.2236942334       40.9028056462  TIP3      3959            0.0000000000
     36778      4160  TIP3      OH2            28.9588901506       -4.5685916014       44.7620828628  TIP3      3960            0.0000000000
     36779      4160  TIP3      H1             29.4097030723       -4.1904051279       45.5325951991  TIP3      3960            0.0000000000
     36780      4160  TIP3      H2             28.4524862600       -3.8128652290       44.4174868593  TIP3      3960            0.0000000000
     36781      4161  TIP3      OH2            34.8866651922      -19.2060987585       41.4505105579  TIP3      3961            0.0000000000
     36782      4161  TIP3      H1             33.9417635828      -19.0979047053       41.6814640561  TIP3      3961            0.0000000000
     36783      4161  TIP3      H2             35.2346619904      -18.3000078844       41.5185738127  TIP3      3961            0.0000000000
     36784      4162  TIP3      OH2            22.3669571881      -10.5854474604       43.7558615027  TIP3      3962            0.0000000000
     36785      4162  TIP3      H1             22.3772958475       -9.8357672836       43.1202736956  TIP3      3962            0.0000000000
     36786      4162  TIP3      H2             22.3573562694      -11.3467498145       43.1572953410  TIP3      3962            0.0000000000
     36787      4163  TIP3      OH2            36.1274790624       -4.6552542111       39.9914440108  TIP3      3963            0.0000000000
     36788      4163  TIP3      H1             36.4629760946       -3.7423872832       40.1405157881  TIP3      3963            0.0000000000
     36789      4163  TIP3      H2             36.9845503115       -5.1112983259       40.0073032195  TIP3      3963            0.0000000000
     36790      4164  TIP3      OH2            19.1366068232       -4.8151687672       48.6734367350  TIP3      3964            0.0000000000
     36791      4164  TIP3      H1             19.9474408746       -5.1840034226       49.0462360516  TIP3      3964            0.0000000000
     36792      4164  TIP3      H2             18.7614025860       -4.2994857629       49.4031018897  TIP3      3964            0.0000000000
     36793      4165  TIP3      OH2            28.4256468580       -1.5000503048       43.5312346731  TIP3      3965            0.0000000000
     36794      4165  TIP3      H1             28.3808890244       -1.3288305538       42.5674601420  TIP3      3965            0.0000000000
     36795      4165  TIP3      H2             28.3952967252       -0.5731542252       43.8674312268  TIP3      3965            0.0000000000
     36796      4166  TIP3      OH2            22.1694485913       -2.4993992737       45.1944085690  TIP3      3966            0.0000000000
     36797      4166  TIP3      H1             22.3268447667       -2.6559955124       46.1501566644  TIP3      3966            0.0000000000
     36798      4166  TIP3      H2             21.3044723879       -2.9359323623       45.0762449507  TIP3      3966            0.0000000000
     36799      4167  TIP3      OH2            31.3674017131       -2.0754720034       40.5346955526  TIP3      3967            0.0000000000
     36800      4167  TIP3      H1             31.8789906577       -2.8137499926       40.1234016950  TIP3      3967            0.0000000000
     36801      4167  TIP3      H2             31.5203882868       -2.2052818801       41.4897622757  TIP3      3967            0.0000000000
     36802      4168  TIP3      OH2            31.1693412217       -2.2159693917       43.2767499573  TIP3      3968            0.0000000000
     36803      4168  TIP3      H1             30.1889743890       -2.1531390510       43.3328799192  TIP3      3968            0.0000000000
     36804      4168  TIP3      H2             31.3563303324       -2.9476508886       43.8818323860  TIP3      3968            0.0000000000
     36805      4169  TIP3      OH2            23.9646768693      -17.9607055668       48.9291698229  TIP3      3969            0.0000000000
     36806      4169  TIP3      H1             23.2313803844      -18.0819338144       48.2875194814  TIP3      3969            0.0000000000
     36807      4169  TIP3      H2             23.6323033620      -17.1666190052       49.3443694794  TIP3      3969            0.0000000000
     36808      4170  TIP3      OH2            32.5987240029       -9.4666762364       39.8142318299  TIP3      3970            0.0000000000
     36809      4170  TIP3      H1             32.3864479996       -9.4415773716       38.8580972479  TIP3      3970            0.0000000000
     36810      4170  TIP3      H2             33.5539507666       -9.2322865622       39.7879554500  TIP3      3970            0.0000000000
     36811      4171  TIP3      OH2            28.4749941883      -15.9310942990       39.9253606566  TIP3      3971            0.0000000000
     36812      4171  TIP3      H1             28.3265454513      -16.2350074377       40.8367320548  TIP3      3971            0.0000000000
     36813      4171  TIP3      H2             27.7631744585      -16.4571280133       39.5208896478  TIP3      3971            0.0000000000
     36814      4172  TIP3      OH2            24.2443804018      -13.2595446483       45.6246516653  TIP3      3972            0.0000000000
     36815      4172  TIP3      H1             23.2845239279      -13.3473552742       45.4695884805  TIP3      3972            0.0000000000
     36816      4172  TIP3      H2             24.6250836304      -13.3449309993       44.7104144495  TIP3      3972            0.0000000000
     36817      4173  TIP3      OH2            29.9485815656      -12.2889161814       44.0251131114  TIP3      3973            0.0000000000
     36818      4173  TIP3      H1             29.4681750758      -11.6253855885       43.4710941187  TIP3      3973            0.0000000000
     36819      4173  TIP3      H2             30.4793689842      -12.7413253507       43.3320556156  TIP3      3973            0.0000000000
     36820      4174  TIP3      OH2            29.8700638338      -13.0973446375       46.8098993765  TIP3      3974            0.0000000000
     36821      4174  TIP3      H1             29.6763287500      -12.5132365304       46.0549752026  TIP3      3974            0.0000000000
     36822      4174  TIP3      H2             30.3702859511      -13.7858277996       46.3324330055  TIP3      3974            0.0000000000
     36823      4175  TIP3      OH2            24.8084671569      -15.4761453822       39.3771988602  TIP3      3975            0.0000000000
     36824      4175  TIP3      H1             24.2433899213      -15.9847404161       39.9997598555  TIP3      3975            0.0000000000
     36825      4175  TIP3      H2             24.1472169748      -14.9719415949       38.8622821002  TIP3      3975            0.0000000000
     36826      4176  TIP3      OH2            18.2194658068      -15.8168294572       46.4317376262  TIP3      3976            0.0000000000
     36827      4176  TIP3      H1             18.7701907154      -15.8394025326       47.2445464657  TIP3      3976            0.0000000000
     36828      4176  TIP3      H2             18.8629060552      -15.9817583055       45.7361619807  TIP3      3976            0.0000000000
     36829      4177  TIP3      OH2            19.2967814514      -15.2551416521       41.5862270059  TIP3      3977            0.0000000000
     36830      4177  TIP3      H1             19.8858864289      -14.8352504845       40.9283356454  TIP3      3977            0.0000000000
     36831      4177  TIP3      H2             18.6714669371      -14.5109576815       41.7134683711  TIP3      3977            0.0000000000
     36832      4178  TIP3      OH2            27.1020759640      -15.2483440698       46.2204157720  TIP3      3978            0.0000000000
     36833      4178  TIP3      H1             26.3480641309      -15.2905046026       46.8273998487  TIP3      3978            0.0000000000
     36834      4178  TIP3      H2             27.7889772394      -15.6930022389       46.7740387497  TIP3      3978            0.0000000000
     36835      4179  TIP3      OH2            21.4172360604      -14.2264339186       45.4366037732  TIP3      3979            0.0000000000
     36836      4179  TIP3      H1             20.7358463367      -13.8862912969       44.8104061338  TIP3      3979            0.0000000000
     36837      4179  TIP3      H2             21.5979771934      -15.1229721574       45.0764523853  TIP3      3979            0.0000000000
     36838      4180  TIP3      OH2            25.1226548548      -13.6146518371       43.1475177998  TIP3      3980            0.0000000000
     36839      4180  TIP3      H1             25.9888966821      -13.7264470469       42.7297488796  TIP3      3980            0.0000000000
     36840      4180  TIP3      H2             24.6045128020      -13.1571664266       42.4615794779  TIP3      3980            0.0000000000
     36841      4181  TIP3      OH2            30.6815394240      -17.0730173259       49.6031649370  TIP3      3981            0.0000000000
     36842      4181  TIP3      H1             30.6866006806      -16.5014977780       50.3925879880  TIP3      3981            0.0000000000
     36843      4181  TIP3      H2             30.1869053145      -16.5041611084       48.9924226342  TIP3      3981            0.0000000000
     36844      4182  TIP3      OH2            23.8644761801      -12.5804103458       40.5301750995  TIP3      3982            0.0000000000
     36845      4182  TIP3      H1             23.4784174115      -13.1299792429       39.8255614879  TIP3      3982            0.0000000000
     36846      4182  TIP3      H2             24.6436581101      -12.2313244673       40.0473744376  TIP3      3982            0.0000000000
     36847      4183  TIP3      OH2            27.7673904168      -12.5869336585       48.3490237682  TIP3      3983            0.0000000000
     36848      4183  TIP3      H1             28.3586851986      -12.7229904862       47.5751431583  TIP3      3983            0.0000000000
     36849      4183  TIP3      H2             28.1374953286      -13.2615663383       48.9307026190  TIP3      3983            0.0000000000
     36850      4184  TIP3      OH2            22.2587680038      -16.6296768680       44.8513704960  TIP3      3984            0.0000000000
     36851      4184  TIP3      H1             21.7628331413      -17.3438183006       45.3091889128  TIP3      3984            0.0000000000
     36852      4184  TIP3      H2             22.7921146331      -17.1600216132       44.2549677273  TIP3      3984            0.0000000000
     36853      4185  TIP3      OH2            27.2104805444       -8.0343610897       42.4488341107  TIP3      3985            0.0000000000
     36854      4185  TIP3      H1             26.4251942630       -8.5052818704       42.0862350781  TIP3      3985            0.0000000000
     36855      4185  TIP3      H2             26.8282793643       -7.7457904008       43.3115035930  TIP3      3985            0.0000000000
     36856      4186  TIP3      OH2            30.9173882288      -15.5126275870       40.9408041186  TIP3      3986            0.0000000000
     36857      4186  TIP3      H1             30.0136968015      -15.3708568764       40.5816404202  TIP3      3986            0.0000000000
     36858      4186  TIP3      H2             31.2106247479      -14.5989357130       41.1338905729  TIP3      3986            0.0000000000
     36859      4187  TIP3      OH2            31.6499336475      -13.2731237795       42.1333771101  TIP3      3987            0.0000000000
     36860      4187  TIP3      H1             32.5297076454      -13.4261249738       42.5202451383  TIP3      3987            0.0000000000
     36861      4187  TIP3      H2             31.8207784854      -12.6047529826       41.4443369300  TIP3      3987            0.0000000000
     36862      4188  TIP3      OH2            22.1282656311       -8.5531000876       47.9627030300  TIP3      3988            0.0000000000
     36863      4188  TIP3      H1             21.6224315274       -9.1308918639       47.3721842325  TIP3      3988            0.0000000000
     36864      4188  TIP3      H2             22.7178675441       -9.1588360913       48.4524950210  TIP3      3988            0.0000000000
     36865      4189  TIP3      OH2            29.2377309466       -6.6405639033       41.4423543453  TIP3      3989            0.0000000000
     36866      4189  TIP3      H1             28.8671466074       -5.7736940007       41.7175980183  TIP3      3989            0.0000000000
     36867      4189  TIP3      H2             28.5199915872       -7.2561034518       41.7233910084  TIP3      3989            0.0000000000
     36868      4190  TIP3      OH2            36.2880627367      -13.2912764601       41.9756835637  TIP3      3990            0.0000000000
     36869      4190  TIP3      H1             35.7565997813      -13.5784029659       41.2057320120  TIP3      3990            0.0000000000
     36870      4190  TIP3      H2             36.4598448116      -12.3692300556       41.6866048851  TIP3      3990            0.0000000000
     36871      4191  TIP3      OH2            34.7520769875       -4.5264762886       42.3925487251  TIP3      3991            0.0000000000
     36872      4191  TIP3      H1             34.1505047081       -5.2644100757       42.5765743976  TIP3      3991            0.0000000000
     36873      4191  TIP3      H2             35.2167457692       -4.7781335075       41.5646028384  TIP3      3991            0.0000000000
     36874      4192  TIP3      OH2            31.5664472178       -9.5094081142       48.9080948905  TIP3      3992            0.0000000000
     36875      4192  TIP3      H1             30.6028481095       -9.7423081370       48.8333886991  TIP3      3992            0.0000000000
     36876      4192  TIP3      H2             31.9386694761      -10.4052592796       48.7758221738  TIP3      3992            0.0000000000
     36877      4193  TIP3      OH2            24.3196275783       -5.2562979010       45.8685034771  TIP3      3993            0.0000000000
     36878      4193  TIP3      H1             24.9575202198       -4.5705734037       46.1288463244  TIP3      3993            0.0000000000
     36879      4193  TIP3      H2             23.9183555320       -4.7695292805       45.1178332495  TIP3      3993            0.0000000000
     36880      4194  TIP3      OH2            20.8223793501      -10.2048674068       40.4562702379  TIP3      3994            0.0000000000
     36881      4194  TIP3      H1             21.1941789118       -9.5231175765       41.0505814181  TIP3      3994            0.0000000000
     36882      4194  TIP3      H2             19.8538762022      -10.1060638958       40.5353975295  TIP3      3994            0.0000000000
     36883      4195  TIP3      OH2            25.8491347796       -7.4998609994       44.6235374530  TIP3      3995            0.0000000000
     36884      4195  TIP3      H1             25.3776100418       -6.7764549571       45.0666229413  TIP3      3995            0.0000000000
     36885      4195  TIP3      H2             25.6643703771       -8.2875807656       45.1543920269  TIP3      3995            0.0000000000
     36886      4196  TIP3      OH2            24.7585408715       -2.9325203880       44.4175968966  TIP3      3996            0.0000000000
     36887      4196  TIP3      H1             23.8254148885       -2.6758359581       44.6184983996  TIP3      3996            0.0000000000
     36888      4196  TIP3      H2             25.1741447189       -2.0876373201       44.6602688675  TIP3      3996            0.0000000000
     36889      4197  TIP3      OH2            32.4775077588       -6.1571834500       40.3510249247  TIP3      3997            0.0000000000
     36890      4197  TIP3      H1             32.6427766869       -6.6691558577       41.1742488916  TIP3      3997            0.0000000000
     36891      4197  TIP3      H2             31.6172924398       -6.5468559031       40.1323771733  TIP3      3997            0.0000000000
     36892      4198  TIP3      OH2            36.8853123922       -2.1258380987       40.5715784625  TIP3      3998            0.0000000000
     36893      4198  TIP3      H1             37.2252827666       -1.3147898499       40.1474486334  TIP3      3998            0.0000000000
     36894      4198  TIP3      H2             36.0266685505       -1.7824649514       40.8646696855  TIP3      3998            0.0000000000
     36895      4199  TIP3      OH2            33.5003814356       -7.7220420580       42.4389274835  TIP3      3999            0.0000000000
     36896      4199  TIP3      H1             33.3106275739       -8.5704433052       42.8880755095  TIP3      3999            0.0000000000
     36897      4199  TIP3      H2             34.4795672642       -7.8108252510       42.3166686483  TIP3      3999            0.0000000000
     36898      4200  TIP3      OH2            26.4226014848       -5.0492316560       38.8852010191  TIP3      4000            0.0000000000
     36899      4200  TIP3      H1             26.3368438492       -5.5361534040       38.0533010648  TIP3      4000            0.0000000000
     36900      4200  TIP3      H2             25.8162619429       -5.5545336483       39.4653202465  TIP3      4000            0.0000000000
     36901      4201  TIP3      OH2            25.0798298908       -5.9118434613       41.2130389460  TIP3      4001            0.0000000000
     36902      4201  TIP3      H1             25.8285288515       -6.3001513213       41.6942612670  TIP3      4001            0.0000000000
     36903      4201  TIP3      H2             25.2159732314       -4.9643722637       41.4486572646  TIP3      4001            0.0000000000
     36904      4202  TIP3      OH2            22.1121271117       -8.3968059456       41.9305972298  TIP3      4002            0.0000000000
     36905      4202  TIP3      H1             21.2149830778       -8.0729144414       42.1746665421  TIP3      4002            0.0000000000
     36906      4202  TIP3      H2             22.4856484988       -7.6371442257       41.4487759597  TIP3      4002            0.0000000000
     36907      4203  TIP3      OH2            30.3251343575      -16.5875647556       43.3044695157  TIP3      4003            0.0000000000
     36908      4203  TIP3      H1             30.6334789513      -16.1083913008       42.5065368257  TIP3      4003            0.0000000000
     36909      4203  TIP3      H2             30.6309076142      -15.9868372855       44.0218513729  TIP3      4003            0.0000000000
     36910      4204  TIP3      OH2            28.0330873070       -4.1754356681       41.9259515980  TIP3      4004            0.0000000000
     36911      4204  TIP3      H1             27.1291453451       -3.8130917384       42.0490150302  TIP3      4004            0.0000000000
     36912      4204  TIP3      H2             28.5151032707       -3.3609866175       41.7223465849  TIP3      4004            0.0000000000
     36913      4205  TIP3      OH2            27.8504064387      -14.6841821207       43.6592094068  TIP3      4005            0.0000000000
     36914      4205  TIP3      H1             28.1764098281      -13.7953116221       43.8778889523  TIP3      4005            0.0000000000
     36915      4205  TIP3      H2             27.4434613529      -14.9587877131       44.5097003896  TIP3      4005            0.0000000000
     36916      4206  TIP3      OH2            28.1187427826      -17.7667013690       44.3448721212  TIP3      4006            0.0000000000
     36917      4206  TIP3      H1             27.8197566819      -17.1187843168       44.9970230636  TIP3      4006            0.0000000000
     36918      4206  TIP3      H2             28.9125229863      -17.3033822840       43.9631282039  TIP3      4006            0.0000000000
     36919      4207  TIP3      OH2            25.4700973347       -3.4451078576       41.8607132774  TIP3      4007            0.0000000000
     36920      4207  TIP3      H1             25.5287360683       -2.6832485555       41.2329341260  TIP3      4007            0.0000000000
     36921      4207  TIP3      H2             25.0246580482       -3.0165025477       42.6240492294  TIP3      4007            0.0000000000
     36922      4208  TIP3      OH2            23.8799212390      -16.5662087764       41.6195241180  TIP3      4008            0.0000000000
     36923      4208  TIP3      H1             23.8873255104      -15.7598961193       42.1610419600  TIP3      4008            0.0000000000
     36924      4208  TIP3      H2             24.8120287467      -16.8556549730       41.6732535356  TIP3      4008            0.0000000000
     36925      4209  TIP3      OH2            32.1286028418      -11.7556970777       47.7654028193  TIP3      4009            0.0000000000
     36926      4209  TIP3      H1             31.4636844794      -12.4305029091       47.9948985724  TIP3      4009            0.0000000000
     36927      4209  TIP3      H2             32.9603695553      -12.2127792958       48.0483162171  TIP3      4009            0.0000000000
     36928      4210  TIP3      OH2            22.2913718173       -5.9262628003       40.3173903128  TIP3      4010            0.0000000000
     36929      4210  TIP3      H1             23.0420685542       -5.6363968233       40.8703899085  TIP3      4010            0.0000000000
     36930      4210  TIP3      H2             22.7792597364       -6.4673827979       39.6645375084  TIP3      4010            0.0000000000
     36931      4211  TIP3      OH2            20.4978394492      -13.2349118039       40.0402031736  TIP3      4011            0.0000000000
     36932      4211  TIP3      H1             20.9382602551      -12.4080514991       40.3143160684  TIP3      4011            0.0000000000
     36933      4211  TIP3      H2             19.9156987067      -12.9267390135       39.3318439526  TIP3      4011            0.0000000000
     36934      4212  TIP3      OH2            34.2506916293       -2.5226014215       49.6374871660  TIP3      4012            0.0000000000
     36935      4212  TIP3      H1             34.0732716186       -1.7039123125       49.1232532812  TIP3      4012            0.0000000000
     36936      4212  TIP3      H2             35.1321906849       -2.3292371446       49.9763290996  TIP3      4012            0.0000000000
     36937      4213  TIP3      OH2            21.5883635515      -18.2274158161       47.8813327389  TIP3      4013            0.0000000000
     36938      4213  TIP3      H1             21.4340136248      -18.6272396615       46.9953911252  TIP3      4013            0.0000000000
     36939      4213  TIP3      H2             21.4452556232      -19.0099981908       48.4414310553  TIP3      4013            0.0000000000
     36940      4214  TIP3      OH2            20.2608795492       -4.5916416914       44.6348875736  TIP3      4014            0.0000000000
     36941      4214  TIP3      H1             19.3921015638       -4.2408914761       44.8680945569  TIP3      4014            0.0000000000
     36942      4214  TIP3      H2             20.3375542429       -4.1872536626       43.7421552373  TIP3      4014            0.0000000000
     36943      4215  TIP3      OH2            28.5058084442       -3.1802540815       38.9264884280  TIP3      4015            0.0000000000
     36944      4215  TIP3      H1             27.9631741733       -3.9878595350       39.0630467606  TIP3      4015            0.0000000000
     36945      4215  TIP3      H2             29.3068428403       -3.5389682659       38.4869952572  TIP3      4015            0.0000000000
     36946      4216  TIP3      OH2            33.0777994602       -3.7208403935       39.0373245531  TIP3      4016            0.0000000000
     36947      4216  TIP3      H1             33.2232813672       -4.4602668091       39.6567396347  TIP3      4016            0.0000000000
     36948      4216  TIP3      H2             33.8799739267       -3.7531489308       38.4898659732  TIP3      4016            0.0000000000
     36949      4217  TIP3      OH2            23.8571236843       -7.7789818721       38.7830941797  TIP3      4017            0.0000000000
     36950      4217  TIP3      H1             24.2377631164       -8.1545004742       39.5899859155  TIP3      4017            0.0000000000
     36951      4217  TIP3      H2             24.6076692653       -7.9057088275       38.1593433469  TIP3      4017            0.0000000000
     36952      4218  TIP3      OH2            29.5290780386       -6.5692714992       38.5899150685  TIP3      4018            0.0000000000
     36953      4218  TIP3      H1             29.2211435787       -6.5788960932       39.5146519627  TIP3      4018            0.0000000000
     36954      4218  TIP3      H2             29.3762591496       -7.5219521533       38.3873835278  TIP3      4018            0.0000000000
     36955      4219  TIP3      OH2            25.2153188505       -9.7725905298       41.4179504329  TIP3      4019            0.0000000000
     36956      4219  TIP3      H1             24.5306639856      -10.3486011883       41.7887166542  TIP3      4019            0.0000000000
     36957      4219  TIP3      H2             25.6152760469      -10.3672967287       40.7502829638  TIP3      4019            0.0000000000
     36958      4220  TIP3      OH2            26.2692438332      -11.4882957623       39.4776198814  TIP3      4020            0.0000000000
     36959      4220  TIP3      H1             26.1736330613      -11.3429774574       38.5099329715  TIP3      4020            0.0000000000
     36960      4220  TIP3      H2             27.2407404977      -11.3767183318       39.5894553409  TIP3      4020            0.0000000000
     36961      4221  TIP3      OH2            35.2327009369       -9.3737228157       39.0100179760  TIP3      4021            0.0000000000
     36962      4221  TIP3      H1             35.0012806491       -9.5163263204       38.0662376200  TIP3      4021            0.0000000000
     36963      4221  TIP3      H2             35.4249446884       -8.4101955775       39.0286094404  TIP3      4021            0.0000000000
     36964      4222  TIP3      OH2            25.9839757743       -1.1676205712       40.7164589356  TIP3      4022            0.0000000000
     36965      4222  TIP3      H1             26.9633584641       -1.1601357531       40.7926753043  TIP3      4022            0.0000000000
     36966      4222  TIP3      H2             25.8787309341       -0.4670008475       40.0482273557  TIP3      4022            0.0000000000
     36967      4223  TIP3      OH2            19.5301995298       -6.3269966613       40.1981720648  TIP3      4023            0.0000000000
     36968      4223  TIP3      H1             20.5052972487       -6.1742374849       40.1829778318  TIP3      4023            0.0000000000
     36969      4223  TIP3      H2             19.4244696148       -6.9510556242       39.4417998385  TIP3      4023            0.0000000000
     36970      4224  TIP3      OH2            18.5621019313       -1.1180201352       44.6806523704  TIP3      4024            0.0000000000
     36971      4224  TIP3      H1             17.7470094215       -1.6128310181       44.4293827420  TIP3      4024            0.0000000000
     36972      4224  TIP3      H2             18.7058677368       -1.5300157913       45.5689894617  TIP3      4024            0.0000000000
     36973      4225  TIP3      OH2            18.9751900774       -2.4617400566       46.9679019835  TIP3      4025            0.0000000000
     36974      4225  TIP3      H1             18.5928800056       -3.3036509505       47.2681910187  TIP3      4025            0.0000000000
     36975      4225  TIP3      H2             19.6275608005       -2.3048541387       47.6929210840  TIP3      4025            0.0000000000
     36976      4226  TIP3      OH2            36.1177770452       -8.3529845262       42.6005816578  TIP3      4026            0.0000000000
     36977      4226  TIP3      H1             36.7778508986       -7.7421137955       42.9462939250  TIP3      4026            0.0000000000
     36978      4226  TIP3      H2             36.1391264696       -9.0211719231       43.3133235631  TIP3      4026            0.0000000000
     36979      4227  TIP3      OH2            36.3225339073       -9.8592467687       44.8931445502  TIP3      4027            0.0000000000
     36980      4227  TIP3      H1             35.5329635642      -10.2864005038       45.2547715580  TIP3      4027            0.0000000000
     36981      4227  TIP3      H2             36.9583280678      -10.0422995720       45.6047870843  TIP3      4027            0.0000000000
     36982      4228  TIP3      OH2            36.8411303497       -7.8772927651       48.9715840041  TIP3      4028            0.0000000000
     36983      4228  TIP3      H1             37.7565214506       -7.5746976432       49.0519141468  TIP3      4028            0.0000000000
     36984      4228  TIP3      H2             36.3998371931       -7.0114833645       49.0635230880  TIP3      4028            0.0000000000
     36985      4229  TIP3      OH2            36.4530304141      -10.5788870083       41.2380901488  TIP3      4029            0.0000000000
     36986      4229  TIP3      H1             36.0291207110      -10.3556103580       40.3889518155  TIP3      4029            0.0000000000
     36987      4229  TIP3      H2             36.5153583474       -9.6779301845       41.6149575784  TIP3      4029            0.0000000000
     36988      4230  TIP3      OH2            34.7983535718      -13.4531120505       39.5689402927  TIP3      4030            0.0000000000
     36989      4230  TIP3      H1             34.9254584928      -12.8445256304       38.8321261455  TIP3      4030            0.0000000000
     36990      4230  TIP3      H2             34.5258074409      -14.2587436630       39.0820657948  TIP3      4030            0.0000000000
     36991      4231  TIP3      OH2            33.9645642275      -11.9716844960       45.3277085828  TIP3      4031            0.0000000000
     36992      4231  TIP3      H1             33.9386134729      -12.5642583854       44.5371672863  TIP3      4031            0.0000000000
     36993      4231  TIP3      H2             34.4395646526      -12.5865567040       45.9234501120  TIP3      4031            0.0000000000
     36994      4232  TIP3      OH2            19.5727075141       -9.2480140616       49.0405505193  TIP3      4032            0.0000000000
     36995      4232  TIP3      H1             19.6384176872       -9.7814962993       48.2234000389  TIP3      4032            0.0000000000
     36996      4232  TIP3      H2             20.0554929198       -9.7764585630       49.7121366288  TIP3      4032            0.0000000000
     36997      4233  TIP3      OH2            34.2058869177      -15.9328072390       38.6054931547  TIP3      4033            0.0000000000
     36998      4233  TIP3      H1             34.1428034502      -16.2616864615       39.5120134058  TIP3      4033            0.0000000000
     36999      4233  TIP3      H2             33.3285308840      -16.2166460410       38.2692099289  TIP3      4033            0.0000000000
     37000      4234  TIP3      OH2            34.0043065160      -14.0401197697       43.7111837537  TIP3      4034            0.0000000000
     37001      4234  TIP3      H1             33.8394311472      -14.9756452514       43.9408571523  TIP3      4034            0.0000000000
     37002      4234  TIP3      H2             34.9372490853      -14.1025820122       43.4250389036  TIP3      4034            0.0000000000
     37003      4235  TIP3      OH2            34.2025090077      -13.2175333992       48.4055865839  TIP3      4035            0.0000000000
     37004      4235  TIP3      H1             35.1931607891      -13.1824702253       48.4422544212  TIP3      4035            0.0000000000
     37005      4235  TIP3      H2             34.0124019743      -13.8229326477       49.1411987167  TIP3      4035            0.0000000000
     37006      4236  TIP3      OH2            34.1420050820      -16.9031707577       43.9057100199  TIP3      4036            0.0000000000
     37007      4236  TIP3      H1             34.4502013433      -17.2534773449       44.7679698186  TIP3      4036            0.0000000000
     37008      4236  TIP3      H2             33.6114889311      -17.6624946658       43.5747706074  TIP3      4036            0.0000000000
     37009      4237  TIP3      OH2            19.9464250385      -16.1567603998       48.6637432873  TIP3      4037            0.0000000000
     37010      4237  TIP3      H1             20.3978041417      -17.0235774213       48.5437690387  TIP3      4037            0.0000000000
     37011      4237  TIP3      H2             20.6730102959      -15.6253678147       49.0409326871  TIP3      4037            0.0000000000
     37012      4238  TIP3      OH2            18.2987127493      -13.2689826179       49.5826503150  TIP3      4038            0.0000000000
     37013      4238  TIP3      H1             18.8007628745      -13.6788918166       48.8489514503  TIP3      4038            0.0000000000
     37014      4238  TIP3      H2             18.6572652161      -12.3769248249       49.5285863193  TIP3      4038            0.0000000000
     37015      4239  TIP3      OH2            36.4320869640      -16.9516315536       40.6559496886  TIP3      4039            0.0000000000
     37016      4239  TIP3      H1             36.5762090182      -17.5215754559       39.8801558611  TIP3      4039            0.0000000000
     37017      4239  TIP3      H2             36.8113435768      -16.1074300900       40.3642475280  TIP3      4039            0.0000000000
     37018      4240  TIP3      OH2            18.4983535312      -17.0289115715       43.3555557317  TIP3      4040            0.0000000000
     37019      4240  TIP3      H1             17.5929854165      -16.7135127531       43.4879149295  TIP3      4040            0.0000000000
     37020      4240  TIP3      H2             18.8495869793      -16.2795969687       42.8243817592  TIP3      4040            0.0000000000
     37021      4241  TIP3      OH2            33.4040517421       -1.9352129913       45.7481476809  TIP3      4041            0.0000000000
     37022      4241  TIP3      H1             33.9844582026       -2.1546279356       44.9919892328  TIP3      4041            0.0000000000
     37023      4241  TIP3      H2             33.9979946765       -1.4073199218       46.3074538072  TIP3      4041            0.0000000000
     37024      4242  TIP3      OH2            20.8536891871       -1.9953346804       48.8842283775  TIP3      4042            0.0000000000
     37025      4242  TIP3      H1             21.1019707640       -1.8806518298       49.8277764934  TIP3      4042            0.0000000000
     37026      4242  TIP3      H2             21.6578384500       -2.3957369459       48.4938229309  TIP3      4042            0.0000000000
     37027      4243  TIP3      OH2            22.8535164015       -3.3191222438       47.7090119007  TIP3      4043            0.0000000000
     37028      4243  TIP3      H1             22.8936138234       -4.2214802855       48.0632060273  TIP3      4043            0.0000000000
     37029      4243  TIP3      H2             23.6557693111       -2.9392164150       48.1412697375  TIP3      4043            0.0000000000
     37030      4244  TIP3      OH2            25.1473247422       -2.6946889741       48.7894950064  TIP3      4044            0.0000000000
     37031      4244  TIP3      H1             25.7310580490       -3.4497808592       48.6717732284  TIP3      4044            0.0000000000
     37032      4244  TIP3      H2             25.1506456605       -2.5847685867       49.7510227026  TIP3      4044            0.0000000000
     37033      4245  TIP3      OH2            28.5324255420      -16.7748049147       47.8787815060  TIP3      4045            0.0000000000
     37034      4245  TIP3      H1             27.9692922875      -17.5219849571       48.1662063954  TIP3      4045            0.0000000000
     37035      4245  TIP3      H2             29.3345908141      -17.2842725377       47.6981431717  TIP3      4045            0.0000000000
     37036      4246  TIP3      OH2            33.5972636454      -19.1118860118       48.0453069442  TIP3      4046            0.0000000000
     37037      4246  TIP3      H1             34.3591724957      -18.5735101427       47.7285165559  TIP3      4046            0.0000000000
     37038      4246  TIP3      H2             32.9265665452      -18.7189226199       47.4461384007  TIP3      4046            0.0000000000
     37039      4247  TIP3      OH2            35.2414981747      -17.8508828417       46.3633568185  TIP3      4047            0.0000000000
     37040      4247  TIP3      H1             35.8992607691      -18.4099532567       45.8886079519  TIP3      4047            0.0000000000
     37041      4247  TIP3      H2             35.6857161335      -16.9691911093       46.3571075214  TIP3      4047            0.0000000000
     37042      4248  TIP3      OH2            21.1178904771      -19.0988022374       45.4340544937  TIP3      4048            0.0000000000
     37043      4248  TIP3      H1             20.3188481346      -19.2105443123       44.8764738629  TIP3      4048            0.0000000000
     37044      4248  TIP3      H2             21.5099970206      -19.9942704243       45.3731023885  TIP3      4048            0.0000000000
     37045      4249  TIP3      OH2            20.1604174293      -18.9865702350       41.6857028637  TIP3      4049            0.0000000000
     37046      4249  TIP3      H1             20.3505356214      -18.3714102139       40.9578724915  TIP3      4049            0.0000000000
     37047      4249  TIP3      H2             19.4725798792      -18.5107148233       42.1936309878  TIP3      4049            0.0000000000
     37048      4250  TIP3      OH2            25.3573882363      -19.1583344960       45.6640766655  TIP3      4050            0.0000000000
     37049      4250  TIP3      H1             26.1577322061      -19.0109684777       45.1519925772  TIP3      4050            0.0000000000
     37050      4250  TIP3      H2             25.7031369945      -19.0907909444       46.5666480983  TIP3      4050            0.0000000000
     37051      4251  TIP3      OH2            31.0492590463      -18.4339091670       46.5426650792  TIP3      4051            0.0000000000
     37052      4251  TIP3      H1             30.9090798480      -18.4219270657       45.5845775155  TIP3      4051            0.0000000000
     37053      4251  TIP3      H2             30.7951074749      -19.3386519277       46.8035366791  TIP3      4051            0.0000000000
     37054      4252  TIP3      OH2            32.6048417714      -18.9208721473       43.0562533313  TIP3      4052            0.0000000000
     37055      4252  TIP3      H1             31.7833408141      -18.4865309776       42.7823217772  TIP3      4052            0.0000000000
     37056      4252  TIP3      H2             32.2857969528      -19.7730621841       43.4166588633  TIP3      4052            0.0000000000
     37057      4253  TIP3      OH2            19.8768332811       -3.0114995800       42.5134930868  TIP3      4053            0.0000000000
     37058      4253  TIP3      H1             18.9469575461       -2.7359706083       42.5286970739  TIP3      4053            0.0000000000
     37059      4253  TIP3      H2             20.2600719151       -2.2266623818       42.0791635901  TIP3      4053            0.0000000000
     37060      4254  TIP3      OH2            21.2972670713      -16.9006422385       39.9246212791  TIP3      4054            0.0000000000
     37061      4254  TIP3      H1             21.8708348064      -17.4911161011       39.3927959825  TIP3      4054            0.0000000000
     37062      4254  TIP3      H2             21.7884754965      -16.8800080007       40.7592047325  TIP3      4054            0.0000000000
     37063      4255  TIP3      OH2            26.9805314668      -16.8307266796       41.9971005271  TIP3      4055            0.0000000000
     37064      4255  TIP3      H1             27.2769274111      -17.3851917551       42.7425097013  TIP3      4055            0.0000000000
     37065      4255  TIP3      H2             27.0698171571      -15.9436935017       42.4102387812  TIP3      4055            0.0000000000
     37066      4256  TIP3      OH2            28.7339164714       -1.4602616846       40.8519825510  TIP3      4056            0.0000000000
     37067      4256  TIP3      H1             29.6784453484       -1.4691103955       40.5771319839  TIP3      4056            0.0000000000
     37068      4256  TIP3      H2             28.4243750061       -2.0829456052       40.1448317567  TIP3      4056            0.0000000000
     37069      4257  TIP3      OH2            35.0742990623       -2.2231239538       43.6467626669  TIP3      4057            0.0000000000
     37070      4257  TIP3      H1             35.0606477980       -3.0512125346       43.1092840118  TIP3      4057            0.0000000000
     37071      4257  TIP3      H2             35.0698320485       -1.5498477764       42.9327824165  TIP3      4057            0.0000000000
     37072      4258  TIP3      OH2            21.1634227790       -2.1167999190       39.2814837954  TIP3      4058            0.0000000000
     37073      4258  TIP3      H1             20.9538318637       -1.7950023337       40.1703832323  TIP3      4058            0.0000000000
     37074      4258  TIP3      H2             21.9480206658       -2.6675820458       39.4515392708  TIP3      4058            0.0000000000
     37075      4259  TIP3      OH2            37.1557998333      -12.4991259676       44.6139712186  TIP3      4059            0.0000000000
     37076      4259  TIP3      H1             36.9214846629      -11.6070319200       44.3335921444  TIP3      4059            0.0000000000
     37077      4259  TIP3      H2             36.9488804796      -13.0227950840       43.8184054077  TIP3      4059            0.0000000000
     37078      4260  TIP3      OH2            37.1820669429       -5.1756925595       48.9348484461  TIP3      4060            0.0000000000
     37079      4260  TIP3      H1             38.1560642816       -5.0814207204       49.0236865466  TIP3      4060            0.0000000000
     37080      4260  TIP3      H2             36.8459247785       -4.6652628533       49.6882510326  TIP3      4060            0.0000000000
     37081      4261  TIP3      OH2            36.6733750493      -15.6254929865       45.9470883051  TIP3      4061            0.0000000000
     37082      4261  TIP3      H1             37.6234946508      -15.4514334029       46.1584149796  TIP3      4061            0.0000000000
     37083      4261  TIP3      H2             36.7716217999      -16.1191685806       45.0973241255  TIP3      4061            0.0000000000
     37084      4262  TIP3      OH2            36.7009482702       -1.0143251657       45.3170193802  TIP3      4062            0.0000000000
     37085      4262  TIP3      H1             36.1787540089       -1.5417648139       44.6717210892  TIP3      4062            0.0000000000
     37086      4262  TIP3      H2             36.8001463317       -1.6543839132       46.0564735464  TIP3      4062            0.0000000000
     37087      4263  TIP3      OH2            37.1918935696       -2.5186591422       47.4857526908  TIP3      4063            0.0000000000
     37088      4263  TIP3      H1             36.7341103478       -3.3555523627       47.6740614062  TIP3      4063            0.0000000000
     37089      4263  TIP3      H2             38.1341852160       -2.7877631186       47.4034726756  TIP3      4063            0.0000000000
     37090      4264  TIP3      OH2            38.2101140595      -10.6899953078       49.3211545578  TIP3      4064            0.0000000000
     37091      4264  TIP3      H1             38.6199675510      -10.3840086182       48.4775143532  TIP3      4064            0.0000000000
     37092      4264  TIP3      H2             38.2536327989       -9.8858419027       49.8553115037  TIP3      4064            0.0000000000
     37093      4265  TIP3      OH2            36.6724820386      -12.8143255429       49.1526499989  TIP3      4065            0.0000000000
     37094      4265  TIP3      H1             37.4001772295      -13.3822762144       48.8604000884  TIP3      4065            0.0000000000
     37095      4265  TIP3      H2             37.1953812450      -12.0129085053       49.3857096481  TIP3      4065            0.0000000000
     37096      4266  TIP3      OH2            36.7957269565      -16.7172706703       43.5623593376  TIP3      4066            0.0000000000
     37097      4266  TIP3      H1             35.8296387615      -16.6728717585       43.3962084835  TIP3      4066            0.0000000000
     37098      4266  TIP3      H2             37.1680480095      -16.6394883801       42.6628479599  TIP3      4066            0.0000000000
     37099      4267  TIP3      OH2           -26.1691167028        9.4477027985       45.4065896682  TIP3      4067            0.0000000000
     37100      4267  TIP3      H1            -26.1898836322       10.4000490179       45.6336973044  TIP3      4067            0.0000000000
     37101      4267  TIP3      H2            -27.0409649869        9.3367084092       45.0075695184  TIP3      4067            0.0000000000
     37102      4268  TIP3      OH2           -27.4509069738        8.3775207993       48.8400678321  TIP3      4068            0.0000000000
     37103      4268  TIP3      H1            -27.5456358501        8.0215841458       49.7492230003  TIP3      4068            0.0000000000
     37104      4268  TIP3      H2            -28.1677579718        7.8992667749       48.3959814361  TIP3      4068            0.0000000000
     37105      4269  TIP3      OH2           -24.4165813143       11.3053366752       47.2047371008  TIP3      4069            0.0000000000
     37106      4269  TIP3      H1            -24.6879750226       10.5518562295       47.7631773605  TIP3      4069            0.0000000000
     37107      4269  TIP3      H2            -24.0693217566       11.9352149983       47.8851522016  TIP3      4069            0.0000000000
     37108      4270  TIP3      OH2           -34.4236030193       12.5621784197       48.6601388071  TIP3      4070            0.0000000000
     37109      4270  TIP3      H1            -34.6512664475       11.6363598163       48.3782909486  TIP3      4070            0.0000000000
     37110      4270  TIP3      H2            -33.4735535434       12.4462151026       48.8045575739  TIP3      4070            0.0000000000
     37111      4271  TIP3      OH2           -37.1206402649        5.7742197774       43.8555612351  TIP3      4071            0.0000000000
     37112      4271  TIP3      H1            -37.0716821094        6.5735331959       44.3932855662  TIP3      4071            0.0000000000
     37113      4271  TIP3      H2            -38.0172187054        5.5089040806       44.1435824148  TIP3      4071            0.0000000000
     37114      4272  TIP3      OH2           -37.2037725298        8.5225666114       47.0572516910  TIP3      4072            0.0000000000
     37115      4272  TIP3      H1            -36.8137961480        7.6302191690       47.1997353518  TIP3      4072            0.0000000000
     37116      4272  TIP3      H2            -36.4149134696        9.0519758480       46.8427547052  TIP3      4072            0.0000000000
     37117      4273  TIP3      OH2           -26.7710224559       16.9375440741       47.6825946372  TIP3      4073            0.0000000000
     37118      4273  TIP3      H1            -26.1515838928       16.4068843002       47.1254675420  TIP3      4073            0.0000000000
     37119      4273  TIP3      H2            -27.1723418911       16.2095920180       48.1720326763  TIP3      4073            0.0000000000
     37120      4274  TIP3      OH2           -28.7097522571       11.0570159489       50.0228821538  TIP3      4074            0.0000000000
     37121      4274  TIP3      H1            -28.2466547567       10.5059146995       49.3686689721  TIP3      4074            0.0000000000
     37122      4274  TIP3      H2            -27.9947571792       11.2320456551       50.6572957440  TIP3      4074            0.0000000000
     37123      4275  TIP3      OH2           -26.0198895197        5.4975159138       49.8816638731  TIP3      4075            0.0000000000
     37124      4275  TIP3      H1            -25.7266812955        4.5724114407       49.9315454135  TIP3      4075            0.0000000000
     37125      4275  TIP3      H2            -26.0482925928        5.6315814340       48.9126798187  TIP3      4075            0.0000000000
     37126      4276  TIP3      OH2           -32.6528770752        3.4016268364       47.1865741374  TIP3      4076            0.0000000000
     37127      4276  TIP3      H1            -32.4431111532        4.1913722720       46.6486823073  TIP3      4076            0.0000000000
     37128      4276  TIP3      H2            -33.0837223376        2.8303210984       46.5181514016  TIP3      4076            0.0000000000
     37129      4277  TIP3      OH2           -25.4116330440        3.7910758353       45.4280927581  TIP3      4077            0.0000000000
     37130      4277  TIP3      H1            -24.8651797417        3.3773322369       46.1418875289  TIP3      4077            0.0000000000
     37131      4277  TIP3      H2            -24.7269461795        4.3431174592       45.0180924784  TIP3      4077            0.0000000000
     37132      4278  TIP3      OH2           -36.0192142749        6.0112839591       47.4561648830  TIP3      4078            0.0000000000
     37133      4278  TIP3      H1            -35.4789271031        5.3556394141       47.9397168808  TIP3      4078            0.0000000000
     37134      4278  TIP3      H2            -35.8945366062        5.6880956061       46.5415940978  TIP3      4078            0.0000000000
     37135      4279  TIP3      OH2           -31.4109194798        7.3691583804       47.2182009435  TIP3      4079            0.0000000000
     37136      4279  TIP3      H1            -30.6401475215        6.8860121327       47.5734128980  TIP3      4079            0.0000000000
     37137      4279  TIP3      H2            -31.7928077471        6.6600406740       46.6489339456  TIP3      4079            0.0000000000
     37138      4280  TIP3      OH2           -26.9754835467       11.8631139559       44.3308203849  TIP3      4080            0.0000000000
     37139      4280  TIP3      H1            -27.1510105184       11.7352888788       43.3832425441  TIP3      4080            0.0000000000
     37140      4280  TIP3      H2            -27.1247429331       12.8331163226       44.3838569708  TIP3      4080            0.0000000000
     37141      4281  TIP3      OH2           -23.5908296859        3.0842441687       47.1468658071  TIP3      4081            0.0000000000
     37142      4281  TIP3      H1            -24.1884626177        2.8522414644       47.9023676105  TIP3      4081            0.0000000000
     37143      4281  TIP3      H2            -22.7279423234        2.8631579324       47.5234670694  TIP3      4081            0.0000000000
     37144      4282  TIP3      OH2           -34.4955115275        4.3792953174       49.0376007484  TIP3      4082            0.0000000000
     37145      4282  TIP3      H1            -34.0152700830        5.1429907038       49.3793862811  TIP3      4082            0.0000000000
     37146      4282  TIP3      H2            -33.8273088716        3.9340265653       48.4698197661  TIP3      4082            0.0000000000
     37147      4283  TIP3      OH2           -37.1231884276       11.5605087770       42.7633233775  TIP3      4083            0.0000000000
     37148      4283  TIP3      H1            -37.3761163412       12.0991300204       41.9818279255  TIP3      4083            0.0000000000
     37149      4283  TIP3      H2            -36.8850454011       12.2482555950       43.4199178282  TIP3      4083            0.0000000000
     37150      4284  TIP3      OH2           -23.2541137077       12.9280945118       48.9265567307  TIP3      4084            0.0000000000
     37151      4284  TIP3      H1            -23.5919813764       12.4860743295       49.7352601642  TIP3      4084            0.0000000000
     37152      4284  TIP3      H2            -22.6982352124       13.6122662052       49.3297587925  TIP3      4084            0.0000000000
     37153      4285  TIP3      OH2           -29.8091311485        0.0996881010       48.3025037034  TIP3      4085            0.0000000000
     37154      4285  TIP3      H1            -29.6051089031       -0.8449966777       48.2970329101  TIP3      4085            0.0000000000
     37155      4285  TIP3      H2            -30.7536702952        0.1319859626       48.6013604887  TIP3      4085            0.0000000000
     37156      4286  TIP3      OH2           -25.2412821564       15.3258776038       46.2476354977  TIP3      4086            0.0000000000
     37157      4286  TIP3      H1            -24.8319795040       14.4527713636       46.0855224773  TIP3      4086            0.0000000000
     37158      4286  TIP3      H2            -24.4611657555       15.9026622459       46.0390126912  TIP3      4086            0.0000000000
     37159      4287  TIP3      OH2           -23.8544817641       13.1832984836       45.1300845813  TIP3      4087            0.0000000000
     37160      4287  TIP3      H1            -24.0795840303       12.4636009370       44.5208710632  TIP3      4087            0.0000000000
     37161      4287  TIP3      H2            -23.8090297119       12.6693633921       45.9604971520  TIP3      4087            0.0000000000
     37162      4288  TIP3      OH2           -27.6307121466        8.6870711999       42.8420117465  TIP3      4088            0.0000000000
     37163      4288  TIP3      H1            -28.1875663160        9.4693255027       42.6729175236  TIP3      4088            0.0000000000
     37164      4288  TIP3      H2            -26.7338386432        9.0511131804       42.6915628264  TIP3      4088            0.0000000000
     37165      4289  TIP3      OH2           -27.4822784648        7.4140534480       39.8414140697  TIP3      4089            0.0000000000
     37166      4289  TIP3      H1            -27.0565298226        7.7404345334       40.6555979658  TIP3      4089            0.0000000000
     37167      4289  TIP3      H2            -27.1650079599        6.4925982534       39.8139310290  TIP3      4089            0.0000000000
     37168      4290  TIP3      OH2           -23.8414071195        8.5919462265       44.0755287592  TIP3      4090            0.0000000000
     37169      4290  TIP3      H1            -24.6458766050        8.8514271571       44.5863878618  TIP3      4090            0.0000000000
     37170      4290  TIP3      H2            -23.2571214416        8.2594018405       44.7805758649  TIP3      4090            0.0000000000
     37171      4291  TIP3      OH2           -32.5481420306        9.2677230090       45.7311271895  TIP3      4091            0.0000000000
     37172      4291  TIP3      H1            -32.9889234331        8.7282855047       45.0441268420  TIP3      4091            0.0000000000
     37173      4291  TIP3      H2            -31.9978256275        8.6056438482       46.2001349483  TIP3      4091            0.0000000000
     37174      4292  TIP3      OH2           -31.0723509150       13.0805383857       48.5371359281  TIP3      4092            0.0000000000
     37175      4292  TIP3      H1            -31.2655685290       12.6971575980       47.6615851773  TIP3      4092            0.0000000000
     37176      4292  TIP3      H2            -30.4245722932       12.4479237048       48.8899143437  TIP3      4092            0.0000000000
     37177      4293  TIP3      OH2           -32.8106598621        8.2081549893       49.3055967745  TIP3      4093            0.0000000000
     37178      4293  TIP3      H1            -32.3202189816        8.0701945546       48.4678109600  TIP3      4093            0.0000000000
     37179      4293  TIP3      H2            -32.1084116303        8.5108941098       49.9024487806  TIP3      4093            0.0000000000
     37180      4294  TIP3      OH2           -25.2286792849        8.4130315313       41.7664416906  TIP3      4094            0.0000000000
     37181      4294  TIP3      H1            -24.5696359552        8.6194329877       42.4595174978  TIP3      4094            0.0000000000
     37182      4294  TIP3      H2            -24.7454014067        8.6887513645       40.9453444262  TIP3      4094            0.0000000000
     37183      4295  TIP3      OH2           -27.5258261605       14.4234569920       44.5773536426  TIP3      4095            0.0000000000
     37184      4295  TIP3      H1            -26.8526851610       14.6451658604       45.2385809809  TIP3      4095            0.0000000000
     37185      4295  TIP3      H2            -28.0550361086       15.2306335429       44.5206151559  TIP3      4095            0.0000000000
     37186      4296  TIP3      OH2           -21.5613375637       -0.4947939541       42.0213323444  TIP3      4096            0.0000000000
     37187      4296  TIP3      H1            -22.5160548015       -0.3415259877       42.1071913306  TIP3      4096            0.0000000000
     37188      4296  TIP3      H2            -21.2047150352        0.3947170675       41.7992236603  TIP3      4096            0.0000000000
     37189      4297  TIP3      OH2           -33.6170252719        8.1024328368       43.3203443479  TIP3      4097            0.0000000000
     37190      4297  TIP3      H1            -34.1002221396        8.8804804628       42.9888227781  TIP3      4097            0.0000000000
     37191      4297  TIP3      H2            -34.1645221104        7.3501105730       43.0554781537  TIP3      4097            0.0000000000
     37192      4298  TIP3      OH2           -20.4119407542       13.8195915968       40.2402848477  TIP3      4098            0.0000000000
     37193      4298  TIP3      H1            -20.1758603600       14.7713514195       40.2591176775  TIP3      4098            0.0000000000
     37194      4298  TIP3      H2            -19.5118385599       13.4419493072       40.3672700282  TIP3      4098            0.0000000000
     37195      4299  TIP3      OH2           -37.0316028668       13.9518182539       48.9945982643  TIP3      4099            0.0000000000
     37196      4299  TIP3      H1            -36.3416192693       13.2654174392       48.9545765100  TIP3      4099            0.0000000000
     37197      4299  TIP3      H2            -36.6531620555       14.5123412681       49.6861517446  TIP3      4099            0.0000000000
     37198      4300  TIP3      OH2           -27.9109060127       17.3729349013       43.6089212299  TIP3      4100            0.0000000000
     37199      4300  TIP3      H1            -27.9454384020       17.4525958873       42.6319292697  TIP3      4100            0.0000000000
     37200      4300  TIP3      H2            -28.1422425233       18.3005398936       43.8579088045  TIP3      4100            0.0000000000
     37201      4301  TIP3      OH2           -34.2105945668       16.2119959100       45.3285930235  TIP3      4101            0.0000000000
     37202      4301  TIP3      H1            -34.0962650444       15.8868263639       46.2493667714  TIP3      4101            0.0000000000
     37203      4301  TIP3      H2            -35.1721753088       16.2362052641       45.2140737300  TIP3      4101            0.0000000000
     37204      4302  TIP3      OH2           -25.0652616839       16.7185683105       40.4307408043  TIP3      4102            0.0000000000
     37205      4302  TIP3      H1            -24.5709617814       15.9551276659       40.0353565652  TIP3      4102            0.0000000000
     37206      4302  TIP3      H2            -24.9710107644       16.5724465026       41.3822861088  TIP3      4102            0.0000000000
     37207      4303  TIP3      OH2           -25.3247465281       16.7422151342       43.1762109111  TIP3      4103            0.0000000000
     37208      4303  TIP3      H1            -26.2714083336       16.8618529002       43.4117476196  TIP3      4103            0.0000000000
     37209      4303  TIP3      H2            -25.0856939773       15.9992278881       43.7584654669  TIP3      4103            0.0000000000
     37210      4304  TIP3      OH2           -32.4947482704        0.6516252185       48.6569364850  TIP3      4104            0.0000000000
     37211      4304  TIP3      H1            -33.3961099688        0.8165864592       48.3009420317  TIP3      4104            0.0000000000
     37212      4304  TIP3      H2            -32.2461520945        1.5275262247       48.9877877546  TIP3      4104            0.0000000000
     37213      4305  TIP3      OH2           -23.7182087686        9.3566251290       39.8724627908  TIP3      4105            0.0000000000
     37214      4305  TIP3      H1            -23.9453525339        9.5178681886       38.9316298929  TIP3      4105            0.0000000000
     37215      4305  TIP3      H2            -22.7526353333        9.4637921248       39.8492453114  TIP3      4105            0.0000000000
     37216      4306  TIP3      OH2           -28.2090822215        2.8728967023       39.8356261023  TIP3      4106            0.0000000000
     37217      4306  TIP3      H1            -28.5189729964        2.7988419105       40.7552147419  TIP3      4106            0.0000000000
     37218      4306  TIP3      H2            -28.7297526143        2.1490897777       39.4610488232  TIP3      4106            0.0000000000
     37219      4307  TIP3      OH2           -32.4226954513        5.5227753401       45.6301094582  TIP3      4107            0.0000000000
     37220      4307  TIP3      H1            -33.3636934948        5.2896541750       45.4545706797  TIP3      4107            0.0000000000
     37221      4307  TIP3      H2            -32.0857496345        5.4649019888       44.6943561237  TIP3      4107            0.0000000000
     37222      4308  TIP3      OH2           -26.9702382278        6.5188128175       44.0629643027  TIP3      4108            0.0000000000
     37223      4308  TIP3      H1            -27.2499496209        7.3112162435       43.5440972570  TIP3      4108            0.0000000000
     37224      4308  TIP3      H2            -26.3415883284        6.1495860206       43.4189879503  TIP3      4108            0.0000000000
     37225      4309  TIP3      OH2           -26.1731239165        5.9717187369       47.1606420478  TIP3      4109            0.0000000000
     37226      4309  TIP3      H1            -26.3559421184        6.7073996711       46.5512344327  TIP3      4109            0.0000000000
     37227      4309  TIP3      H2            -26.0286087261        5.2510606443       46.5188519924  TIP3      4109            0.0000000000
     37228      4310  TIP3      OH2           -31.9746488275        3.2051407241       39.2221172072  TIP3      4110            0.0000000000
     37229      4310  TIP3      H1            -32.3483785247        2.6156914260       39.9158630198  TIP3      4110            0.0000000000
     37230      4310  TIP3      H2            -32.7771092236        3.5122256372       38.7906066318  TIP3      4110            0.0000000000
     37231      4311  TIP3      OH2           -37.6324787838        2.9944414633       46.3892625555  TIP3      4111            0.0000000000
     37232      4311  TIP3      H1            -37.2494264270        3.1364245896       47.2832083447  TIP3      4111            0.0000000000
     37233      4311  TIP3      H2            -37.1860806229        2.1885429592       46.1064357442  TIP3      4111            0.0000000000
     37234      4312  TIP3      OH2           -37.3985422797        3.7889469771       41.5360669767  TIP3      4112            0.0000000000
     37235      4312  TIP3      H1            -36.6859910882        4.2112178010       41.0050950626  TIP3      4112            0.0000000000
     37236      4312  TIP3      H2            -37.8459049506        4.5616582916       41.9114803433  TIP3      4112            0.0000000000
     37237      4313  TIP3      OH2           -29.6889979194        3.4865728950       46.3906210090  TIP3      4113            0.0000000000
     37238      4313  TIP3      H1            -30.5202398602        3.3380193334       46.8670558138  TIP3      4113            0.0000000000
     37239      4313  TIP3      H2            -29.0670089752        2.9318793932       46.9008202431  TIP3      4113            0.0000000000
     37240      4314  TIP3      OH2           -34.9748719785        4.8086454015       45.1511614174  TIP3      4114            0.0000000000
     37241      4314  TIP3      H1            -35.6727104630        4.8839667472       44.4639502949  TIP3      4114            0.0000000000
     37242      4314  TIP3      H2            -34.9080921015        3.8217184526       45.1780867779  TIP3      4114            0.0000000000
     37243      4315  TIP3      OH2           -31.7368420387        5.1019038042       43.0997226363  TIP3      4115            0.0000000000
     37244      4315  TIP3      H1            -30.7854442710        5.0794409482       42.8915226249  TIP3      4115            0.0000000000
     37245      4315  TIP3      H2            -32.1060843167        5.6419760470       42.3809909380  TIP3      4115            0.0000000000
     37246      4316  TIP3      OH2           -25.3833778273        2.9780497469       49.0739895426  TIP3      4116            0.0000000000
     37247      4316  TIP3      H1            -25.4001632989        2.7203295763       50.0158201159  TIP3      4116            0.0000000000
     37248      4316  TIP3      H2            -26.3196914165        2.8694306379       48.8154115464  TIP3      4116            0.0000000000
     37249      4317  TIP3      OH2           -32.6683817840        6.3842127445       40.5067391488  TIP3      4117            0.0000000000
     37250      4317  TIP3      H1            -33.1304967687        5.7723888838       39.9252304064  TIP3      4117            0.0000000000
     37251      4317  TIP3      H2            -31.8459669603        6.5588611307       40.0029247018  TIP3      4117            0.0000000000
     37252      4318  TIP3      OH2           -28.9604656046        6.0126760217       48.2886138960  TIP3      4118            0.0000000000
     37253      4318  TIP3      H1            -28.6024330847        5.8178981257       47.4057033600  TIP3      4118            0.0000000000
     37254      4318  TIP3      H2            -28.2708616869        5.5911157431       48.8301988376  TIP3      4118            0.0000000000
     37255      4319  TIP3      OH2           -34.2990507042        2.2914660999       45.1151523380  TIP3      4119            0.0000000000
     37256      4319  TIP3      H1            -34.8723381617        1.5283677216       45.3795980682  TIP3      4119            0.0000000000
     37257      4319  TIP3      H2            -33.8555582469        1.8505192843       44.3718451338  TIP3      4119            0.0000000000
     37258      4320  TIP3      OH2           -29.3085564335       10.6825925587       42.6836313163  TIP3      4120            0.0000000000
     37259      4320  TIP3      H1            -30.0379674629       10.2051483209       42.2435649259  TIP3      4120            0.0000000000
     37260      4320  TIP3      H2            -29.7733918646       10.9817267033       43.5073234068  TIP3      4120            0.0000000000
     37261      4321  TIP3      OH2           -25.7730626452        3.3636042922       40.8800032782  TIP3      4121            0.0000000000
     37262      4321  TIP3      H1            -26.5986038481        3.4360913013       40.3635740355  TIP3      4121            0.0000000000
     37263      4321  TIP3      H2            -25.5763572468        4.3135905028       41.0574694567  TIP3      4121            0.0000000000
     37264      4322  TIP3      OH2           -25.1795182369        5.6967912306       41.9588452595  TIP3      4122            0.0000000000
     37265      4322  TIP3      H1            -24.5908592638        5.3144592980       42.6240054335  TIP3      4122            0.0000000000
     37266      4322  TIP3      H2            -24.7488909690        6.5520063878       41.7801289550  TIP3      4122            0.0000000000
     37267      4323  TIP3      OH2           -34.2813395337       10.0881382380       47.8367851755  TIP3      4123            0.0000000000
     37268      4323  TIP3      H1            -33.7534658875        9.9477942686       47.0311359704  TIP3      4123            0.0000000000
     37269      4323  TIP3      H2            -33.7695138071        9.6055376825       48.5207146008  TIP3      4123            0.0000000000
     37270      4324  TIP3      OH2           -27.4460460102       12.1369239440       41.6732297741  TIP3      4124            0.0000000000
     37271      4324  TIP3      H1            -27.8417217736       13.0259342515       41.8278136565  TIP3      4124            0.0000000000
     37272      4324  TIP3      H2            -28.1584220128       11.5323779336       41.9836572176  TIP3      4124            0.0000000000
     37273      4325  TIP3      OH2           -20.2444777591        5.4136492140       41.9958274367  TIP3      4125            0.0000000000
     37274      4325  TIP3      H1            -20.7732009776        5.3728317197       41.1650925106  TIP3      4125            0.0000000000
     37275      4325  TIP3      H2            -19.9916567357        6.3549480495       42.0064067470  TIP3      4125            0.0000000000
     37276      4326  TIP3      OH2           -22.0682069225       14.2088751991       42.3086086743  TIP3      4126            0.0000000000
     37277      4326  TIP3      H1            -22.3440580135       13.4852522821       42.8858521052  TIP3      4126            0.0000000000
     37278      4326  TIP3      H2            -21.4953269485       13.7753343865       41.6429137483  TIP3      4126            0.0000000000
     37279      4327  TIP3      OH2           -24.7736386228        9.0626941296       49.0030274953  TIP3      4127            0.0000000000
     37280      4327  TIP3      H1            -25.7046966111        8.7628199097       48.8808882538  TIP3      4127            0.0000000000
     37281      4327  TIP3      H2            -24.2637215617        8.3943864351       48.4930261822  TIP3      4127            0.0000000000
     37282      4328  TIP3      OH2           -32.1329631247       13.4251130688       45.8018231147  TIP3      4128            0.0000000000
     37283      4328  TIP3      H1            -31.6792483565       14.2610079926       46.0078803086  TIP3      4128            0.0000000000
     37284      4328  TIP3      H2            -32.8775986039       13.7743672737       45.2991952824  TIP3      4128            0.0000000000
     37285      4329  TIP3      OH2           -36.0289546393        8.6429816276       40.4521274035  TIP3      4129            0.0000000000
     37286      4329  TIP3      H1            -35.6363568391        9.4368533059       40.8531667776  TIP3      4129            0.0000000000
     37287      4329  TIP3      H2            -36.9484178876        8.6676663004       40.7583734214  TIP3      4129            0.0000000000
     37288      4330  TIP3      OH2           -30.7940294959       11.2383256173       44.7908477998  TIP3      4130            0.0000000000
     37289      4330  TIP3      H1            -31.2371957041       11.9743467008       45.2593599438  TIP3      4130            0.0000000000
     37290      4330  TIP3      H2            -30.9966261936       10.4670466367       45.3480650730  TIP3      4130            0.0000000000
     37291      4331  TIP3      OH2           -31.7282034796       15.9502836818       44.4836560947  TIP3      4131            0.0000000000
     37292      4331  TIP3      H1            -32.6716011649       16.1212949947       44.7008701786  TIP3      4131            0.0000000000
     37293      4331  TIP3      H2            -31.3536199335       16.7818902966       44.8479210281  TIP3      4131            0.0000000000
     37294      4332  TIP3      OH2           -24.0867106989       12.4300061501       40.1773287564  TIP3      4132            0.0000000000
     37295      4332  TIP3      H1            -23.9900438278       12.0865871537       41.0916333241  TIP3      4132            0.0000000000
     37296      4332  TIP3      H2            -25.0166122719       12.1807101344       40.0265792344  TIP3      4132            0.0000000000
     37297      4333  TIP3      OH2           -19.9008823596       16.6953054369       40.6454439273  TIP3      4133            0.0000000000
     37298      4333  TIP3      H1            -19.2582104772       17.3765170089       40.3836326643  TIP3      4133            0.0000000000
     37299      4333  TIP3      H2            -20.5730799784       17.2440079202       41.1043369720  TIP3      4133            0.0000000000
     37300      4334  TIP3      OH2           -23.3277024365       11.0282377703       42.5480299029  TIP3      4134            0.0000000000
     37301      4334  TIP3      H1            -23.5403420837       10.1754174168       42.9703185645  TIP3      4134            0.0000000000
     37302      4334  TIP3      H2            -22.3800899593       10.8840673741       42.3308531519  TIP3      4134            0.0000000000
     37303      4335  TIP3      OH2           -30.0081623780       13.7669031059       38.8204494972  TIP3      4135            0.0000000000
     37304      4335  TIP3      H1            -30.0414308673       13.1583119299       38.0637940366  TIP3      4135            0.0000000000
     37305      4335  TIP3      H2            -30.5524001608       13.2821737284       39.4709060119  TIP3      4135            0.0000000000
     37306      4336  TIP3      OH2           -31.0912188408       12.9275023944       41.2072883003  TIP3      4136            0.0000000000
     37307      4336  TIP3      H1            -30.2339871111       12.7405705948       41.6286205715  TIP3      4136            0.0000000000
     37308      4336  TIP3      H2            -31.1432259113       13.8998820280       41.4169392732  TIP3      4136            0.0000000000
     37309      4337  TIP3      OH2           -34.7311218355       10.5687948658       41.9998821485  TIP3      4137            0.0000000000
     37310      4337  TIP3      H1            -35.5899576608       10.7595582731       42.4643861008  TIP3      4137            0.0000000000
     37311      4337  TIP3      H2            -34.8571921019       11.0952002650       41.1917692101  TIP3      4137            0.0000000000
     37312      4338  TIP3      OH2           -26.3363482589        2.4278441489       43.2813234773  TIP3      4138            0.0000000000
     37313      4338  TIP3      H1            -26.0688730020        2.8429221048       42.4314877977  TIP3      4138            0.0000000000
     37314      4338  TIP3      H2            -25.9273333166        3.0034986663       43.9624704988  TIP3      4138            0.0000000000
     37315      4339  TIP3      OH2           -28.6234944956       14.5374940762       41.7727402194  TIP3      4139            0.0000000000
     37316      4339  TIP3      H1            -29.3677211916       15.0542618124       42.1497750216  TIP3      4139            0.0000000000
     37317      4339  TIP3      H2            -27.9590032003       15.2405355522       41.6878076430  TIP3      4139            0.0000000000
     37318      4340  TIP3      OH2           -29.0314857912        4.3848909645       43.8959977422  TIP3      4140            0.0000000000
     37319      4340  TIP3      H1            -28.4693420300        5.1675056000       44.0518004120  TIP3      4140            0.0000000000
     37320      4340  TIP3      H2            -29.3098003325        4.0919662294       44.7968905336  TIP3      4140            0.0000000000
     37321      4341  TIP3      OH2           -28.4392653641        1.2066124709       44.3725053155  TIP3      4141            0.0000000000
     37322      4341  TIP3      H1            -28.6845633571        1.7493780990       45.1442146106  TIP3      4141            0.0000000000
     37323      4341  TIP3      H2            -27.6728509677        1.7182374375       44.0087067674  TIP3      4141            0.0000000000
     37324      4342  TIP3      OH2           -31.1153077892       15.4904976219       41.8397968776  TIP3      4142            0.0000000000
     37325      4342  TIP3      H1            -30.9653009218       16.3135114994       41.3034953485  TIP3      4142            0.0000000000
     37326      4342  TIP3      H2            -31.5015571479       15.9124346008       42.6405000692  TIP3      4142            0.0000000000
     37327      4343  TIP3      OH2           -32.6842359889        2.2748052772       41.6793198190  TIP3      4143            0.0000000000
     37328      4343  TIP3      H1            -32.7613255454        3.0858178346       42.2020048924  TIP3      4143            0.0000000000
     37329      4343  TIP3      H2            -31.7181549994        2.1140795667       41.7059740467  TIP3      4143            0.0000000000
     37330      4344  TIP3      OH2           -23.6519127137        7.0558890911       47.5913137450  TIP3      4144            0.0000000000
     37331      4344  TIP3      H1            -24.4426859631        6.5199487771       47.7716475912  TIP3      4144            0.0000000000
     37332      4344  TIP3      H2            -22.9969487653        6.6001366301       48.1821967529  TIP3      4144            0.0000000000
     37333      4345  TIP3      OH2           -34.2995259594       12.9999787487       40.3267938823  TIP3      4145            0.0000000000
     37334      4345  TIP3      H1            -33.9509249307       13.8851130499       40.1209892854  TIP3      4145            0.0000000000
     37335      4345  TIP3      H2            -34.1162100620       12.5203005011       39.4938198633  TIP3      4145            0.0000000000
     37336      4346  TIP3      OH2           -36.0125190718        5.6076849162       39.9353918344  TIP3      4146            0.0000000000
     37337      4346  TIP3      H1            -35.7924670287        6.5250041002       40.1674849361  TIP3      4146            0.0000000000
     37338      4346  TIP3      H2            -36.5143498442        5.7373301263       39.1227072572  TIP3      4146            0.0000000000
     37339      4347  TIP3      OH2           -22.5252193451       16.5668126622       49.6232117152  TIP3      4147            0.0000000000
     37340      4347  TIP3      H1            -22.3624977713       17.2996881368       48.9914868473  TIP3      4147            0.0000000000
     37341      4347  TIP3      H2            -21.6820906324       16.5037983835       50.0813166872  TIP3      4147            0.0000000000
     37342      4348  TIP3      OH2           -35.1952844242        0.5957617874       48.0506515865  TIP3      4148            0.0000000000
     37343      4348  TIP3      H1            -35.2506476276        0.3727042256       47.0996014546  TIP3      4148            0.0000000000
     37344      4348  TIP3      H2            -35.3155199406       -0.3049461147       48.4199649471  TIP3      4148            0.0000000000
     37345      4349  TIP3      OH2           -36.1991614112       13.7474710049       44.0727173498  TIP3      4149            0.0000000000
     37346      4349  TIP3      H1            -36.9438220063       14.0605925605       44.5889033049  TIP3      4149            0.0000000000
     37347      4349  TIP3      H2            -35.9076386590       14.5822912432       43.6624526077  TIP3      4149            0.0000000000
     37348      4350  TIP3      OH2           -28.0177223109       15.6695731057       38.7217006463  TIP3      4150            0.0000000000
     37349      4350  TIP3      H1            -28.5096383894       14.8525932311       38.9625513121  TIP3      4150            0.0000000000
     37350      4350  TIP3      H2            -27.2088020661       15.2862258155       38.3339749453  TIP3      4150            0.0000000000
     37351      4351  TIP3      OH2           -23.6159485527       14.9343351130       38.8945283758  TIP3      4151            0.0000000000
     37352      4351  TIP3      H1            -23.4801084778       14.1452947704       39.4546663742  TIP3      4151            0.0000000000
     37353      4351  TIP3      H2            -22.8139802125       14.9253650185       38.3432568066  TIP3      4151            0.0000000000
     37354      4352  TIP3      OH2           -32.5743945192       10.9073578627       39.0653479945  TIP3      4152            0.0000000000
     37355      4352  TIP3      H1            -32.3645611181       10.0244165319       39.3965966580  TIP3      4152            0.0000000000
     37356      4352  TIP3      H2            -31.7329616096       11.0966463233       38.6126325650  TIP3      4152            0.0000000000
     37357      4353  TIP3      OH2           -26.9768790474       12.1916903423       38.8532638462  TIP3      4153            0.0000000000
     37358      4353  TIP3      H1            -27.3776767471       12.1325838095       39.7337683192  TIP3      4153            0.0000000000
     37359      4353  TIP3      H2            -27.0516516306       11.2445364704       38.5657398487  TIP3      4153            0.0000000000
     37360      4354  TIP3      OH2           -31.5783108290        9.3209519009       41.4544384768  TIP3      4154            0.0000000000
     37361      4354  TIP3      H1            -32.0844682188        8.7001173711       42.0215316113  TIP3      4154            0.0000000000
     37362      4354  TIP3      H2            -31.1118234676        8.6664091750       40.9040435294  TIP3      4154            0.0000000000
     37363      4355  TIP3      OH2           -30.3156235133        7.4136637437       39.3721209275  TIP3      4155            0.0000000000
     37364      4355  TIP3      H1            -30.3302304452        7.7626335089       38.4570828101  TIP3      4155            0.0000000000
     37365      4355  TIP3      H2            -29.3540815406        7.3861637401       39.5661749158  TIP3      4155            0.0000000000
     37366      4356  TIP3      OH2           -21.0215354890        9.4525355281       38.8477333487  TIP3      4156            0.0000000000
     37367      4356  TIP3      H1            -21.3002795135        9.2007561237       37.9444443494  TIP3      4156            0.0000000000
     37368      4356  TIP3      H2            -21.1031453861       10.4412402951       38.8118301551  TIP3      4156            0.0000000000
     37369      4357  TIP3      OH2           -30.5909338307       17.8709929387       40.8552937469  TIP3      4157            0.0000000000
     37370      4357  TIP3      H1            -29.6237142165       17.8763014978       40.9313054633  TIP3      4157            0.0000000000
     37371      4357  TIP3      H2            -30.7197439698       18.5426804451       40.1665797874  TIP3      4157            0.0000000000
     37372      4358  TIP3      OH2           -37.0194409759       12.8005216995       40.3137226928  TIP3      4158            0.0000000000
     37373      4358  TIP3      H1            -36.0772848161       13.0404371929       40.3326484070  TIP3      4158            0.0000000000
     37374      4358  TIP3      H2            -37.0629405767       12.2747856045       39.4952011256  TIP3      4158            0.0000000000
     37375      4359  TIP3      OH2           -37.4569968895       17.7086762627       45.0411660941  TIP3      4159            0.0000000000
     37376      4359  TIP3      H1            -38.4283200698       17.8074493938       45.1389063611  TIP3      4159            0.0000000000
     37377      4359  TIP3      H2            -37.2850017937       17.0797553270       45.7700206372  TIP3      4159            0.0000000000
     37378      4360  TIP3      OH2           -37.0648672268       15.8933581125       47.0991574749  TIP3      4160            0.0000000000
     37379      4360  TIP3      H1            -37.0994489576       15.0352133035       47.5857940373  TIP3      4160            0.0000000000
     37380      4360  TIP3      H2            -36.5009626016       16.3969756695       47.7336359129  TIP3      4160            0.0000000000
     37381      4361  TIP3      OH2           -20.6555298731       10.4973247640       42.5995354784  TIP3      4161            0.0000000000
     37382      4361  TIP3      H1            -19.8058367419       10.9483726106       42.7865632783  TIP3      4161            0.0000000000
     37383      4361  TIP3      H2            -20.7050911029        9.8828627310       43.3702965097  TIP3      4161            0.0000000000
     37384      4362  TIP3      OH2           -20.3122335036        8.7575825728       44.7675808527  TIP3      4162            0.0000000000
     37385      4362  TIP3      H1            -20.9816154542        8.2492329878       45.2822451197  TIP3      4162            0.0000000000
     37386      4362  TIP3      H2            -19.5361329738        8.7609064999       45.3695630809  TIP3      4162            0.0000000000
     37387      4363  TIP3      OH2           -19.4047173595       11.6255204698       49.6013816813  TIP3      4163            0.0000000000
     37388      4363  TIP3      H1            -19.0606557042       10.8798503132       49.0794498357  TIP3      4163            0.0000000000
     37389      4363  TIP3      H2            -20.1646091899       11.9336619047       49.0700572695  TIP3      4163            0.0000000000
     37390      4364  TIP3      OH2           -19.7639057332        8.3129074851       41.0373741575  TIP3      4164            0.0000000000
     37391      4364  TIP3      H1            -20.3987941817        8.4186851280       40.2937521344  TIP3      4164            0.0000000000
     37392      4364  TIP3      H2            -20.0231493601        9.0740396475       41.5956831245  TIP3      4164            0.0000000000
     37393      4365  TIP3      OH2           -21.3762164472        5.5932545567       39.4712836167  TIP3      4165            0.0000000000
     37394      4365  TIP3      H1            -21.4510814783        6.1815132811       38.7091998299  TIP3      4165            0.0000000000
     37395      4365  TIP3      H2            -21.7616614296        4.7486384707       39.1260509080  TIP3      4165            0.0000000000
     37396      4366  TIP3      OH2           -22.1690403931        6.8058207004       45.4476077597  TIP3      4166            0.0000000000
     37397      4366  TIP3      H1            -22.6279687453        6.0648220923       45.0165420042  TIP3      4166            0.0000000000
     37398      4366  TIP3      H2            -22.6704962117        6.8846912692       46.2956660448  TIP3      4166            0.0000000000
     37399      4367  TIP3      OH2           -36.5381707030       10.0623229116       49.4465897433  TIP3      4167            0.0000000000
     37400      4367  TIP3      H1            -36.6239130536        9.6148856922       48.5909835401  TIP3      4167            0.0000000000
     37401      4367  TIP3      H2            -35.9658507175        9.4058200348       49.8850022997  TIP3      4167            0.0000000000
     37402      4368  TIP3      OH2           -22.3079086214        3.1339901410       38.8808369055  TIP3      4168            0.0000000000
     37403      4368  TIP3      H1            -21.8868496657        2.5778157324       39.5603903627  TIP3      4168            0.0000000000
     37404      4368  TIP3      H2            -23.1278930063        2.6619485395       38.6645308523  TIP3      4168            0.0000000000
     37405      4369  TIP3      OH2           -23.1175980015        4.8108272446       43.7616214311  TIP3      4169            0.0000000000
     37406      4369  TIP3      H1            -22.8919336824        3.8827653835       44.0217352043  TIP3      4169            0.0000000000
     37407      4369  TIP3      H2            -22.2584765953        5.0213652559       43.3598750603  TIP3      4169            0.0000000000
     37408      4370  TIP3      OH2           -21.9790024798        5.5142473900       48.8824973656  TIP3      4170            0.0000000000
     37409      4370  TIP3      H1            -21.0071045707        5.4580872226       48.9814293677  TIP3      4170            0.0000000000
     37410      4370  TIP3      H2            -22.1949475926        4.5738249116       49.0913288783  TIP3      4170            0.0000000000
     37411      4371  TIP3      OH2           -22.2350186116        2.2789827867       43.8433380807  TIP3      4171            0.0000000000
     37412      4371  TIP3      H1            -21.8632395587        1.8208932357       44.6140939290  TIP3      4171            0.0000000000
     37413      4371  TIP3      H2            -22.8088790774        1.5662696883       43.4983264300  TIP3      4171            0.0000000000
     37414      4372  TIP3      OH2           -36.8163041134        2.7636928862       48.8902279725  TIP3      4172            0.0000000000
     37415      4372  TIP3      H1            -36.4003954773        1.8842353965       48.7948204558  TIP3      4172            0.0000000000
     37416      4372  TIP3      H2            -36.1140107345        3.2522255226       49.3718275712  TIP3      4172            0.0000000000
     37417      4373  TIP3      OH2           -37.3615556607        5.7883795490       50.0962726056  TIP3      4173            0.0000000000
     37418      4373  TIP3      H1            -37.1413141582        5.5668073753       49.1752246352  TIP3      4173            0.0000000000
     37419      4373  TIP3      H2            -37.7907368802        6.6587503575       49.9591879722  TIP3      4173            0.0000000000
     37420      4374  TIP3      OH2           -20.3511963133        1.8819962512       40.5865174039  TIP3      4174            0.0000000000
     37421      4374  TIP3      H1            -19.9429214811        1.3814691949       39.8409854063  TIP3      4174            0.0000000000
     37422      4374  TIP3      H2            -19.7190717185        2.6102335048       40.7000219457  TIP3      4174            0.0000000000
     37423      4375  TIP3      OH2           -37.3738252181        1.8852919144       43.3461215444  TIP3      4175            0.0000000000
     37424      4375  TIP3      H1            -38.1821189176        2.1631209795       43.8191100634  TIP3      4175            0.0000000000
     37425      4375  TIP3      H2            -37.4216611362        2.4612428664       42.5537112826  TIP3      4175            0.0000000000
     37426      4376  TIP3      OH2           -23.2225044171       16.9695243785       45.6270868928  TIP3      4176            0.0000000000
     37427      4376  TIP3      H1            -22.4761299043       16.7938679971       45.0246212477  TIP3      4176            0.0000000000
     37428      4376  TIP3      H2            -22.8557817106       17.5768943161       46.2928267530  TIP3      4176            0.0000000000
     37429      4377  TIP3      OH2           -35.5830349855       16.8785183291       49.1761630779  TIP3      4177            0.0000000000
     37430      4377  TIP3      H1            -35.4068294893       17.0893645732       50.1101819566  TIP3      4177            0.0000000000
     37431      4377  TIP3      H2            -34.7535432825       16.3953436000       48.9587111534  TIP3      4177            0.0000000000
     37432      4378  TIP3      OH2           -33.8705068521       15.2895783841       47.8147373324  TIP3      4178            0.0000000000
     37433      4378  TIP3      H1            -34.1151185667       14.3501458357       47.9151090397  TIP3      4178            0.0000000000
     37434      4378  TIP3      H2            -32.9880063264       15.3185895791       48.2527025538  TIP3      4178            0.0000000000
     37435      4379  TIP3      OH2           -31.3213017455       15.8065256439       48.9163354759  TIP3      4179            0.0000000000
     37436      4379  TIP3      H1            -31.0127462334       14.9183975563       48.6370657157  TIP3      4179            0.0000000000
     37437      4379  TIP3      H2            -30.8851353554       15.8773227996       49.7702613017  TIP3      4179            0.0000000000
     37438      4380  TIP3      OH2           -27.8177067377        1.9762071927       47.8841098245  TIP3      4180            0.0000000000
     37439      4380  TIP3      H1            -28.4743797779        1.2895230554       48.1539052031  TIP3      4180            0.0000000000
     37440      4380  TIP3      H2            -27.0291802847        1.4089524116       47.8616788253  TIP3      4180            0.0000000000
     37441      4381  TIP3      OH2           -22.3868037591       -0.0179703032       47.9214543226  TIP3      4181            0.0000000000
     37442      4381  TIP3      H1            -21.8701222475        0.3868566371       47.1835260352  TIP3      4181            0.0000000000
     37443      4381  TIP3      H2            -23.3081347708        0.2603930897       47.7327730567  TIP3      4181            0.0000000000
     37444      4382  TIP3      OH2           -20.8334403668        0.8063117520       45.8209509514  TIP3      4182            0.0000000000
     37445      4382  TIP3      H1            -20.1298561202        0.3043799901       45.3635430849  TIP3      4182            0.0000000000
     37446      4382  TIP3      H2            -20.3415697931        1.6482007938       46.0121979873  TIP3      4182            0.0000000000
     37447      4383  TIP3      OH2           -35.1387136740       -0.1034303813       45.4653623247  TIP3      4183            0.0000000000
     37448      4383  TIP3      H1            -35.9926330216       -0.2977187955       44.9976865536  TIP3      4183            0.0000000000
     37449      4383  TIP3      H2            -34.6617607810       -0.9474721940       45.3223397440  TIP3      4183            0.0000000000
     37450      4384  TIP3      OH2           -36.1966645887       -0.0515507019       41.9234526247  TIP3      4184            0.0000000000
     37451      4384  TIP3      H1            -36.1442545331        0.3487954747       41.0414463982  TIP3      4184            0.0000000000
     37452      4384  TIP3      H2            -36.6452596721        0.6514036900       42.4609120060  TIP3      4184            0.0000000000
     37453      4385  TIP3      OH2           -31.0785774434       -0.5028415079       45.6469843795  TIP3      4185            0.0000000000
     37454      4385  TIP3      H1            -30.2933696577       -0.0358821106       45.3482642421  TIP3      4185            0.0000000000
     37455      4385  TIP3      H2            -30.9985721807       -0.4849812488       46.6119621382  TIP3      4185            0.0000000000
     37456      4386  TIP3      OH2           -24.9431470954        0.2736600687       47.0220295002  TIP3      4186            0.0000000000
     37457      4386  TIP3      H1            -25.2504445958        0.5265831068       46.1496920535  TIP3      4186            0.0000000000
     37458      4386  TIP3      H2            -25.3900496414       -0.5892469523       47.1625235663  TIP3      4186            0.0000000000
     37459      4387  TIP3      OH2           -23.9898321603        0.2686303368       43.3012394864  TIP3      4187            0.0000000000
     37460      4387  TIP3      H1            -24.8090976484        0.7851105612       43.3588041288  TIP3      4187            0.0000000000
     37461      4387  TIP3      H2            -24.2808495792       -0.6579995675       43.4431476319  TIP3      4187            0.0000000000
     37462      4388  TIP3      OH2           -36.4403631381       16.2486602736       42.6127251772  TIP3      4188            0.0000000000
     37463      4388  TIP3      H1            -37.4001391703       16.3497831786       42.4886968860  TIP3      4188            0.0000000000
     37464      4388  TIP3      H2            -36.1684661958       17.1407495825       42.2857752324  TIP3      4188            0.0000000000
     37465      4389  TIP3      OH2           -35.3408837875        1.6970832036       39.8794966705  TIP3      4189            0.0000000000
     37466      4389  TIP3      H1            -34.6396203099        1.2078242428       39.4066618152  TIP3      4189            0.0000000000
     37467      4389  TIP3      H2            -34.9686623457        1.7845864808       40.7693626976  TIP3      4189            0.0000000000
     37468      4390  TIP3      OH2           -29.6920168579        2.2542643432       42.1018379649  TIP3      4190            0.0000000000
     37469      4390  TIP3      H1            -29.2557321162        1.6930626460       42.7715364884  TIP3      4190            0.0000000000
     37470      4390  TIP3      H2            -29.5834182602        3.1188827625       42.5459856499  TIP3      4190            0.0000000000
     37471      4391  TIP3      OH2           -27.7324297220       17.2645157121       40.8783657489  TIP3      4191            0.0000000000
     37472      4391  TIP3      H1            -26.7942351827       17.3611129938       40.6242684012  TIP3      4191            0.0000000000
     37473      4391  TIP3      H2            -28.0126708602       16.7198336888       40.1099427175  TIP3      4191            0.0000000000
     37474      4392  TIP3      OH2           -21.3352714454       16.3358313022       43.7492384526  TIP3      4192            0.0000000000
     37475      4392  TIP3      H1            -21.5768992825       15.5462570735       43.1995327089  TIP3      4192            0.0000000000
     37476      4392  TIP3      H2            -21.3353184821       17.0515727831       43.0744819703  TIP3      4192            0.0000000000
     37477      4393  TIP3      OH2           -35.1725696983       16.2865315105       39.5775056964  TIP3      4193            0.0000000000
     37478      4393  TIP3      H1            -35.3335044679       16.7120140578       40.4323373688  TIP3      4193            0.0000000000
     37479      4393  TIP3      H2            -34.2314636421       16.0792233370       39.6440790992  TIP3      4193            0.0000000000
     37480      4394  TIP3      OH2            -7.3578491824        9.4325790135       45.4342533006  TIP3      4194            0.0000000000
     37481      4394  TIP3      H1             -7.3992758079       10.3990946444       45.5990032998  TIP3      4194            0.0000000000
     37482      4394  TIP3      H2             -8.2049494299        9.3057761575       44.9818409208  TIP3      4194            0.0000000000
     37483      4395  TIP3      OH2            -8.5604620069        8.4528072262       48.8414026961  TIP3      4195            0.0000000000
     37484      4395  TIP3      H1             -8.5881182170        7.9634568905       49.6834577860  TIP3      4195            0.0000000000
     37485      4395  TIP3      H2             -9.1589705788        7.9347436405       48.2801958065  TIP3      4195            0.0000000000
     37486      4396  TIP3      OH2            -5.6830974981       11.3827359566       47.2028715882  TIP3      4196            0.0000000000
     37487      4396  TIP3      H1             -5.8616167656       10.6316067502       47.8111643909  TIP3      4196            0.0000000000
     37488      4396  TIP3      H2             -5.2709730248       12.0229873190       47.8301294692  TIP3      4196            0.0000000000
     37489      4397  TIP3      OH2           -15.2446617439       12.8070885716       48.8352852069  TIP3      4197            0.0000000000
     37490      4397  TIP3      H1            -15.4522346771       11.8553800061       48.7366506151  TIP3      4197            0.0000000000
     37491      4397  TIP3      H2            -14.2764833590       12.8082937155       48.7216893370  TIP3      4197            0.0000000000
     37492      4398  TIP3      OH2           -18.4663298755        5.7938034373       44.8318341205  TIP3      4198            0.0000000000
     37493      4398  TIP3      H1            -18.6825191905        6.7293595193       44.9461415655  TIP3      4198            0.0000000000
     37494      4398  TIP3      H2            -19.2588866188        5.4671569643       44.3859335010  TIP3      4198            0.0000000000
     37495      4399  TIP3      OH2           -17.9039633997        8.4215379225       46.4741912065  TIP3      4199            0.0000000000
     37496      4399  TIP3      H1            -17.5041611551        7.6823427961       46.9834034433  TIP3      4199            0.0000000000
     37497      4399  TIP3      H2            -17.1469297241        8.9732148922       46.2299861249  TIP3      4199            0.0000000000
     37498      4400  TIP3      OH2            -7.8349055623       16.9494008942       47.6856125616  TIP3      4200            0.0000000000
     37499      4400  TIP3      H1             -7.2136894120       16.4166951521       47.1382255898  TIP3      4200            0.0000000000
     37500      4400  TIP3      H2             -8.2626574256       16.2047562852       48.1289972014  TIP3      4200            0.0000000000
     37501      4401  TIP3      OH2            -9.9062845831       10.8909266942       50.1327115576  TIP3      4201            0.0000000000
     37502      4401  TIP3      H1             -9.3786899482       10.3064412824       49.5544418357  TIP3      4201            0.0000000000
     37503      4401  TIP3      H2             -9.2850590434       11.0346433316       50.8576961273  TIP3      4201            0.0000000000
     37504      4402  TIP3      OH2            -7.1537411259        5.4433803560       49.8294060424  TIP3      4202            0.0000000000
     37505      4402  TIP3      H1             -6.8834460239        4.5076681278       49.9151649978  TIP3      4202            0.0000000000
     37506      4402  TIP3      H2             -7.0845560069        5.5532394876       48.8678500343  TIP3      4202            0.0000000000
     37507      4403  TIP3      OH2           -13.5951010503        3.2107551336       47.0991380300  TIP3      4203            0.0000000000
     37508      4403  TIP3      H1            -13.4385837141        3.9975148168       46.5277040059  TIP3      4203            0.0000000000
     37509      4403  TIP3      H2            -14.1921486806        2.7024027132       46.5124170871  TIP3      4203            0.0000000000
     37510      4404  TIP3      OH2            -6.5595313717        3.8426917979       45.4688867574  TIP3      4204            0.0000000000
     37511      4404  TIP3      H1             -6.0058519676        3.3869790942       46.1473929562  TIP3      4204            0.0000000000
     37512      4404  TIP3      H2             -5.8631089103        4.3804857697       45.0546243691  TIP3      4204            0.0000000000
     37513      4405  TIP3      OH2           -17.3294085568        5.7945348938       47.7484194060  TIP3      4205            0.0000000000
     37514      4405  TIP3      H1            -16.7360928169        5.1464281980       48.1767103646  TIP3      4205            0.0000000000
     37515      4405  TIP3      H2            -17.2895128486        5.4884086433       46.8167315894  TIP3      4205            0.0000000000
     37516      4406  TIP3      OH2           -12.4163420392        7.3690841479       47.1114876166  TIP3      4206            0.0000000000
     37517      4406  TIP3      H1            -11.6959173552        6.8323834789       47.4918617908  TIP3      4206            0.0000000000
     37518      4406  TIP3      H2            -12.9534583317        6.6734064792       46.6561144441  TIP3      4206            0.0000000000
     37519      4407  TIP3      OH2            -8.2374849280       11.7593793644       44.3830826015  TIP3      4207            0.0000000000
     37520      4407  TIP3      H1             -8.3754570195       11.7472127313       43.4184759415  TIP3      4207            0.0000000000
     37521      4407  TIP3      H2             -8.3566634591       12.7261265870       44.5325340646  TIP3      4207            0.0000000000
     37522      4408  TIP3      OH2            -4.7287960023        3.1289961233       47.2035543410  TIP3      4208            0.0000000000
     37523      4408  TIP3      H1             -5.3347835665        2.8806228944       47.9456815704  TIP3      4208            0.0000000000
     37524      4408  TIP3      H2             -3.8669963424        2.8577414917       47.5592448169  TIP3      4208            0.0000000000
     37525      4409  TIP3      OH2           -15.3605210015        4.3087523991       48.9413876702  TIP3      4209            0.0000000000
     37526      4409  TIP3      H1            -15.0661322267        5.2336820591       48.9485030666  TIP3      4209            0.0000000000
     37527      4409  TIP3      H2            -14.8886041920        3.9556226683       48.1618767133  TIP3      4209            0.0000000000
     37528      4410  TIP3      OH2           -17.9883031858       11.4953132218       42.8856579030  TIP3      4210            0.0000000000
     37529      4410  TIP3      H1            -18.0676292153       12.0356461749       42.0688796020  TIP3      4210            0.0000000000
     37530      4410  TIP3      H2            -17.8637793388       12.1983987002       43.5535557843  TIP3      4210            0.0000000000
     37531      4411  TIP3      OH2            -4.4470687330       12.9895120208       48.9002706963  TIP3      4211            0.0000000000
     37532      4411  TIP3      H1             -4.5716299049       12.3363278948       49.6184692891  TIP3      4211            0.0000000000
     37533      4411  TIP3      H2             -3.9780445841       13.6725146951       49.3909282762  TIP3      4211            0.0000000000
     37534      4412  TIP3      OH2           -11.1732583393       -0.0092266394       48.1279840046  TIP3      4212            0.0000000000
     37535      4412  TIP3      H1            -10.9412313759       -0.9381488947       48.2754422827  TIP3      4212            0.0000000000
     37536      4412  TIP3      H2            -12.0980608751        0.0466252541       48.4647796654  TIP3      4212            0.0000000000
     37537      4413  TIP3      OH2            -6.4367472124       15.3192632513       46.2062900655  TIP3      4213            0.0000000000
     37538      4413  TIP3      H1             -5.9820199642       14.4961257678       45.9415335325  TIP3      4213            0.0000000000
     37539      4413  TIP3      H2             -5.7132802782       15.9651674206       45.9962666657  TIP3      4213            0.0000000000
     37540      4414  TIP3      OH2            -4.8415359443       13.2503348999       45.0825895596  TIP3      4214            0.0000000000
     37541      4414  TIP3      H1             -4.9677274756       12.6275246204       44.3447149914  TIP3      4214            0.0000000000
     37542      4414  TIP3      H2             -4.9969541807       12.6527854329       45.8435809133  TIP3      4214            0.0000000000
     37543      4415  TIP3      OH2            -8.9682077230        8.6328504139       42.8825224923  TIP3      4215            0.0000000000
     37544      4415  TIP3      H1             -9.4266921838        9.4658137114       42.6760044947  TIP3      4215            0.0000000000
     37545      4415  TIP3      H2             -8.0783224060        8.7507368701       42.4945853913  TIP3      4215            0.0000000000
     37546      4416  TIP3      OH2            -8.5922130528        7.5550066987       39.8635424320  TIP3      4216            0.0000000000
     37547      4416  TIP3      H1             -7.9965473839        7.8871734672       40.5674736417  TIP3      4216            0.0000000000
     37548      4416  TIP3      H2             -8.3451383213        6.6134648606       39.8341945335  TIP3      4216            0.0000000000
     37549      4417  TIP3      OH2            -5.1594605969        8.4767548113       43.9738131956  TIP3      4217            0.0000000000
     37550      4417  TIP3      H1             -5.8403641050        8.8116805366       44.6064017856  TIP3      4217            0.0000000000
     37551      4417  TIP3      H2             -4.4591140990        8.1156553950       44.5612693717  TIP3      4217            0.0000000000
     37552      4418  TIP3      OH2           -13.7272503741        9.2399261397       45.7740862773  TIP3      4218            0.0000000000
     37553      4418  TIP3      H1            -14.1091226222        8.7654279738       45.0068021442  TIP3      4218            0.0000000000
     37554      4418  TIP3      H2            -13.1029840942        8.5798134239       46.1520379763  TIP3      4218            0.0000000000
     37555      4419  TIP3      OH2           -12.3505393635       13.0684615476       48.5510775641  TIP3      4219            0.0000000000
     37556      4419  TIP3      H1            -12.4219683464       12.8003178547       47.6180610529  TIP3      4219            0.0000000000
     37557      4419  TIP3      H2            -11.7797063412       12.3525063526       48.8917555311  TIP3      4219            0.0000000000
     37558      4420  TIP3      OH2           -13.9560627424        7.5004491784       49.3528941487  TIP3      4220            0.0000000000
     37559      4420  TIP3      H1            -13.4413716617        7.5653801890       48.5219192440  TIP3      4220            0.0000000000
     37560      4420  TIP3      H2            -13.7201687680        8.3419417525       49.7871906765  TIP3      4220            0.0000000000
     37561      4421  TIP3      OH2            -6.5871723362        8.4417402733       41.6588368987  TIP3      4221            0.0000000000
     37562      4421  TIP3      H1             -5.9905276866        8.5634551464       42.4417750730  TIP3      4221            0.0000000000
     37563      4421  TIP3      H2             -5.9845769076        8.6882723454       40.9128970233  TIP3      4221            0.0000000000
     37564      4422  TIP3      OH2            -8.5983098864       14.3653111540       44.6247358764  TIP3      4222            0.0000000000
     37565      4422  TIP3      H1             -7.9731469395       14.7148818558       45.2854179191  TIP3      4222            0.0000000000
     37566      4422  TIP3      H2             -9.1239882249       15.1465205057       44.4045963972  TIP3      4222            0.0000000000
     37567      4423  TIP3      OH2            -2.7010378789       -0.5195521796       41.9871373707  TIP3      4223            0.0000000000
     37568      4423  TIP3      H1             -3.6387213506       -0.2687829289       42.0686635348  TIP3      4223            0.0000000000
     37569      4423  TIP3      H2             -2.2733327112        0.3366100153       41.7600560045  TIP3      4223            0.0000000000
     37570      4424  TIP3      OH2           -15.2061959200        8.2719198221       43.5341319559  TIP3      4224            0.0000000000
     37571      4424  TIP3      H1            -15.3495851332        9.0913768171       43.0096511786  TIP3      4224            0.0000000000
     37572      4424  TIP3      H2            -15.4298709126        7.5884339935       42.8912692223  TIP3      4224            0.0000000000
     37573      4425  TIP3      OH2            -1.5608827636       13.9370601079       40.1200226013  TIP3      4225            0.0000000000
     37574      4425  TIP3      H1             -1.3630927500       14.8934783487       40.2192755316  TIP3      4225            0.0000000000
     37575      4425  TIP3      H2             -0.6604245116       13.5666750119       40.2367855838  TIP3      4225            0.0000000000
     37576      4426  TIP3      OH2           -18.7962920476       14.0327446696       48.4507280657  TIP3      4226            0.0000000000
     37577      4426  TIP3      H1            -18.2131974607       13.3517665177       48.8061899649  TIP3      4226            0.0000000000
     37578      4426  TIP3      H2            -19.2452877482       14.3171949387       49.2586977564  TIP3      4226            0.0000000000
     37579      4427  TIP3      OH2            -9.0304527145       17.4613785297       43.4943642129  TIP3      4227            0.0000000000
     37580      4427  TIP3      H1             -9.0862649775       17.6095127662       42.5317269117  TIP3      4227            0.0000000000
     37581      4427  TIP3      H2             -9.2730925778       18.3563540076       43.8228607067  TIP3      4227            0.0000000000
     37582      4428  TIP3      OH2           -15.5354933706       16.1970904620       45.2796126399  TIP3      4228            0.0000000000
     37583      4428  TIP3      H1            -15.3660623509       16.0144622123       46.2333707635  TIP3      4228            0.0000000000
     37584      4428  TIP3      H2            -16.4510884415       15.8633907975       45.1841706420  TIP3      4228            0.0000000000
     37585      4429  TIP3      OH2            -6.1170247045       16.7669208679       40.3849308861  TIP3      4229            0.0000000000
     37586      4429  TIP3      H1             -5.5792390084       16.0151616556       40.0470522356  TIP3      4229            0.0000000000
     37587      4429  TIP3      H2             -6.0775638938       16.6287283250       41.3509490294  TIP3      4229            0.0000000000
     37588      4430  TIP3      OH2            -6.4852510103       16.7661678318       43.1504187398  TIP3      4230            0.0000000000
     37589      4430  TIP3      H1             -7.4404239513       16.9072513564       43.3500450001  TIP3      4230            0.0000000000
     37590      4430  TIP3      H2             -6.2906996966       16.0635288314       43.7934679970  TIP3      4230            0.0000000000
     37591      4431  TIP3      OH2           -13.7818734247        0.7743348171       49.0276870868  TIP3      4231            0.0000000000
     37592      4431  TIP3      H1            -14.5543451762        0.7504823184       48.4299719216  TIP3      4231            0.0000000000
     37593      4431  TIP3      H2            -13.8298954740        1.7011096976       49.2949295671  TIP3      4231            0.0000000000
     37594      4432  TIP3      OH2            -4.8773796425        9.3709629915       39.8574012614  TIP3      4232            0.0000000000
     37595      4432  TIP3      H1             -5.0413590642        9.5555323068       38.9070721624  TIP3      4232            0.0000000000
     37596      4432  TIP3      H2             -3.9151648853        9.5073689272       39.8870629386  TIP3      4232            0.0000000000
     37597      4433  TIP3      OH2            -9.3562240560        2.9194050917       39.9417161212  TIP3      4233            0.0000000000
     37598      4433  TIP3      H1             -9.7571566666        2.9009515107       40.8247003126  TIP3      4233            0.0000000000
     37599      4433  TIP3      H2             -9.9166431102        2.2573546866       39.5049644342  TIP3      4233            0.0000000000
     37600      4434  TIP3      OH2           -13.6271813630        5.4703077791       45.7063845748  TIP3      4234            0.0000000000
     37601      4434  TIP3      H1            -14.5602341854        5.2077993659       45.5350916354  TIP3      4234            0.0000000000
     37602      4434  TIP3      H2            -13.2485505531        5.4669208214       44.7925180741  TIP3      4234            0.0000000000
     37603      4435  TIP3      OH2            -7.9983764434        6.4785566590       44.0396815209  TIP3      4235            0.0000000000
     37604      4435  TIP3      H1             -8.3813374383        7.2481577174       43.5426517489  TIP3      4235            0.0000000000
     37605      4435  TIP3      H2             -7.4143685705        6.1229921303       43.3486652514  TIP3      4235            0.0000000000
     37606      4436  TIP3      OH2            -7.4143698182        6.0068711665       47.0831201045  TIP3      4236            0.0000000000
     37607      4436  TIP3      H1             -7.4740094237        6.6884634127       46.3846903605  TIP3      4236            0.0000000000
     37608      4436  TIP3      H2             -7.2509997351        5.2247303446       46.5170566498  TIP3      4236            0.0000000000
     37609      4437  TIP3      OH2           -12.8226111274        3.3367238695       39.2445525850  TIP3      4237            0.0000000000
     37610      4437  TIP3      H1            -13.3167690673        2.9227449674       39.9823721979  TIP3      4237            0.0000000000
     37611      4437  TIP3      H2            -13.5415100931        3.6688278109       38.6757958727  TIP3      4237            0.0000000000
     37612      4438  TIP3      OH2           -19.4393157781        3.0420451723       46.3890896076  TIP3      4238            0.0000000000
     37613      4438  TIP3      H1            -18.7991012963        3.0789822230       47.1328825079  TIP3      4238            0.0000000000
     37614      4438  TIP3      H2            -18.8984316723        3.2815959042       45.6248475354  TIP3      4238            0.0000000000
     37615      4439  TIP3      OH2           -18.3354557531        3.6372798988       41.3854201817  TIP3      4239            0.0000000000
     37616      4439  TIP3      H1            -17.6912309483        4.0632235442       40.7837882459  TIP3      4239            0.0000000000
     37617      4439  TIP3      H2            -18.9576891393        4.3798988228       41.5337856347  TIP3      4239            0.0000000000
     37618      4440  TIP3      OH2           -10.7325665097        3.2881596308       46.1578947439  TIP3      4240            0.0000000000
     37619      4440  TIP3      H1            -11.5435058168        3.2463785778       46.6928720769  TIP3      4240            0.0000000000
     37620      4440  TIP3      H2            -10.1103883115        2.8616698005       46.7772801169  TIP3      4240            0.0000000000
     37621      4441  TIP3      OH2           -16.2241582467        4.5034376207       45.5637192475  TIP3      4241            0.0000000000
     37622      4441  TIP3      H1            -16.9601653530        4.9726950967       45.1070613743  TIP3      4241            0.0000000000
     37623      4441  TIP3      H2            -16.1872916352        3.6257722026       45.1154432477  TIP3      4241            0.0000000000
     37624      4442  TIP3      OH2           -12.7855161373        5.2589259648       43.1691898346  TIP3      4242            0.0000000000
     37625      4442  TIP3      H1            -11.8990083367        5.1221530715       42.8015374205  TIP3      4242            0.0000000000
     37626      4442  TIP3      H2            -13.2251705420        5.7495949125       42.4569997126  TIP3      4242            0.0000000000
     37627      4443  TIP3      OH2            -6.5415451558        2.9271096498       49.1552389132  TIP3      4243            0.0000000000
     37628      4443  TIP3      H1             -6.5536593305        2.6812140951       50.0978814556  TIP3      4243            0.0000000000
     37629      4443  TIP3      H2             -7.4851267779        2.8093206457       48.9426600957  TIP3      4243            0.0000000000
     37630      4444  TIP3      OH2           -13.9643544173        6.3324544387       40.4403224511  TIP3      4244            0.0000000000
     37631      4444  TIP3      H1            -14.2742498975        5.7070173359       39.7665288010  TIP3      4244            0.0000000000
     37632      4444  TIP3      H2            -13.1189004105        6.5901627596       40.0212745587  TIP3      4244            0.0000000000
     37633      4445  TIP3      OH2            -9.9421059125        5.8511931897       48.4264481553  TIP3      4245            0.0000000000
     37634      4445  TIP3      H1             -9.2720836788        5.8835950186       47.7164902437  TIP3      4245            0.0000000000
     37635      4445  TIP3      H2             -9.4667757262        5.3278730866       49.0859385533  TIP3      4245            0.0000000000
     37636      4446  TIP3      OH2           -15.3423126986        2.0875762519       44.8458276428  TIP3      4246            0.0000000000
     37637      4446  TIP3      H1            -15.9607748269        1.4529116172       45.2702394742  TIP3      4246            0.0000000000
     37638      4446  TIP3      H2            -14.8246209248        1.4458926639       44.3424395010  TIP3      4246            0.0000000000
     37639      4447  TIP3      OH2           -10.5605142418       10.8064861248       42.5434441581  TIP3      4247            0.0000000000
     37640      4447  TIP3      H1            -11.3271366366       10.3404798331       42.1303138238  TIP3      4247            0.0000000000
     37641      4447  TIP3      H2            -10.9533168989       11.0206171661       43.4252075012  TIP3      4247            0.0000000000
     37642      4448  TIP3      OH2            -6.9568956412        3.3814117382       40.8517972566  TIP3      4248            0.0000000000
     37643      4448  TIP3      H1             -7.8577035645        3.3447223297       40.4575268156  TIP3      4248            0.0000000000
     37644      4448  TIP3      H2             -6.8055873219        4.3405373880       40.9396775573  TIP3      4248            0.0000000000
     37645      4449  TIP3      OH2            -6.1939228493        5.7206922302       41.9616150539  TIP3      4249            0.0000000000
     37646      4449  TIP3      H1             -5.5528574389        5.3978650356       42.6189369628  TIP3      4249            0.0000000000
     37647      4449  TIP3      H2             -5.8248542443        6.5915228808       41.7438529264  TIP3      4249            0.0000000000
     37648      4450  TIP3      OH2           -15.7733927580       10.1790059346       48.2609986391  TIP3      4250            0.0000000000
     37649      4450  TIP3      H1            -15.5726671451       10.1168341521       47.3159339015  TIP3      4250            0.0000000000
     37650      4450  TIP3      H2            -14.9214285800        9.9470786255       48.6674282703  TIP3      4250            0.0000000000
     37651      4451  TIP3      OH2            -8.5753282294       12.2209495557       41.5129535757  TIP3      4251            0.0000000000
     37652      4451  TIP3      H1             -8.9463956818       13.1171263538       41.6903239294  TIP3      4251            0.0000000000
     37653      4451  TIP3      H2             -9.3010468590       11.6227272370       41.7984911628  TIP3      4251            0.0000000000
     37654      4452  TIP3      OH2            -1.4328803525        5.3964417467       42.0142240097  TIP3      4252            0.0000000000
     37655      4452  TIP3      H1             -1.8754654199        5.4244314873       41.1334763592  TIP3      4252            0.0000000000
     37656      4452  TIP3      H2             -1.1031286009        6.3127832239       42.0551180835  TIP3      4252            0.0000000000
     37657      4453  TIP3      OH2            -3.2509696471       14.3490425595       42.2795904047  TIP3      4253            0.0000000000
     37658      4453  TIP3      H1             -3.4013821819       13.6620291216       42.9427243673  TIP3      4253            0.0000000000
     37659      4453  TIP3      H2             -2.7780112320       13.8945614900       41.5639671840  TIP3      4253            0.0000000000
     37660      4454  TIP3      OH2            -5.8840880457        9.2129470644       48.9749679707  TIP3      4254            0.0000000000
     37661      4454  TIP3      H1             -6.8113939177        8.8895013591       48.8687793845  TIP3      4254            0.0000000000
     37662      4454  TIP3      H2             -5.3886920801        8.5970329701       48.3980621999  TIP3      4254            0.0000000000
     37663      4455  TIP3      OH2           -13.1568527273       13.7104955420       45.7148844519  TIP3      4255            0.0000000000
     37664      4455  TIP3      H1            -12.9168494919       14.5189879193       45.2050506318  TIP3      4255            0.0000000000
     37665      4455  TIP3      H2            -14.0995260941       13.6966835396       45.5161448429  TIP3      4255            0.0000000000
     37666      4456  TIP3      OH2           -17.0656216899        8.4596342907       40.4425545117  TIP3      4256            0.0000000000
     37667      4456  TIP3      H1            -16.6330567480        8.9903130286       41.1373382674  TIP3      4256            0.0000000000
     37668      4456  TIP3      H2            -18.0327386794        8.5764705218       40.5870458910  TIP3      4256            0.0000000000
     37669      4457  TIP3      OH2           -12.0393263339       11.1792700519       44.7837290089  TIP3      4257            0.0000000000
     37670      4457  TIP3      H1            -12.3185412793       12.0087613593       45.2072786540  TIP3      4257            0.0000000000
     37671      4457  TIP3      H2            -12.4274886907       10.4830278325       45.3483748314  TIP3      4257            0.0000000000
     37672      4458  TIP3      OH2           -12.8912071729       16.0857593848       44.5184127464  TIP3      4258            0.0000000000
     37673      4458  TIP3      H1            -13.8605609397       16.1974662425       44.6217302300  TIP3      4258            0.0000000000
     37674      4458  TIP3      H2            -12.5894685051       16.9239887856       44.9272374619  TIP3      4258            0.0000000000
     37675      4459  TIP3      OH2            -5.2893177302       12.5376019643       40.1933726184  TIP3      4259            0.0000000000
     37676      4459  TIP3      H1             -5.1479941363       12.1558383303       41.0823347056  TIP3      4259            0.0000000000
     37677      4459  TIP3      H2             -6.2171920115       12.2953271828       40.0901604533  TIP3      4259            0.0000000000
     37678      4460  TIP3      OH2            -1.0520640995       16.6209082715       40.5995094468  TIP3      4260            0.0000000000
     37679      4460  TIP3      H1             -0.5696609480       17.2582466290       40.0584403602  TIP3      4260            0.0000000000
     37680      4460  TIP3      H2             -1.7328703285       17.1895100531       41.0345845744  TIP3      4260            0.0000000000
     37681      4461  TIP3      OH2            -4.5678405742       11.1148213246       42.5258662276  TIP3      4261            0.0000000000
     37682      4461  TIP3      H1             -4.9078146555       10.2937593571       42.9135909253  TIP3      4261            0.0000000000
     37683      4461  TIP3      H2             -3.6038958044       10.9377648698       42.4955869488  TIP3      4261            0.0000000000
     37684      4462  TIP3      OH2           -11.3310069368       13.7572058502       38.8816645752  TIP3      4262            0.0000000000
     37685      4462  TIP3      H1            -11.4910172034       13.2246170179       38.0884461257  TIP3      4262            0.0000000000
     37686      4462  TIP3      H2            -11.9167122255       13.3090936039       39.5284043066  TIP3      4262            0.0000000000
     37687      4463  TIP3      OH2           -12.6233417354       12.9703002403       41.1727132007  TIP3      4263            0.0000000000
     37688      4463  TIP3      H1            -11.8549723016       12.5766437737       41.6227370225  TIP3      4263            0.0000000000
     37689      4463  TIP3      H2            -12.5098445693       13.9098071259       41.4516999953  TIP3      4263            0.0000000000
     37690      4464  TIP3      OH2           -15.7667016110       10.3728290531       41.8166654811  TIP3      4264            0.0000000000
     37691      4464  TIP3      H1            -16.5981398420       10.6679263522       42.2505253130  TIP3      4264            0.0000000000
     37692      4464  TIP3      H2            -15.4860374092       11.1948351082       41.3712807707  TIP3      4264            0.0000000000
     37693      4465  TIP3      OH2            -7.2794097567        2.3685478602       43.3552134231  TIP3      4265            0.0000000000
     37694      4465  TIP3      H1             -7.1091551095        2.8276574933       42.5098386345  TIP3      4265            0.0000000000
     37695      4465  TIP3      H2             -6.9576055447        2.9984089827       44.0315809872  TIP3      4265            0.0000000000
     37696      4466  TIP3      OH2            -9.5747371273       14.7683531536       41.7221689665  TIP3      4266            0.0000000000
     37697      4466  TIP3      H1            -10.4677511331       15.0756164668       41.9675141595  TIP3      4266            0.0000000000
     37698      4466  TIP3      H2             -9.1054325341       15.6163440959       41.6493255637  TIP3      4266            0.0000000000
     37699      4467  TIP3      OH2           -10.1123822131        4.3099740922       43.6806049769  TIP3      4267            0.0000000000
     37700      4467  TIP3      H1             -9.5255966615        5.0670509417       43.8826890760  TIP3      4267            0.0000000000
     37701      4467  TIP3      H2            -10.4725322365        4.0560605436       44.5604911279  TIP3      4267            0.0000000000
     37702      4468  TIP3      OH2            -9.4486396140        1.1624005985       44.3992479595  TIP3      4268            0.0000000000
     37703      4468  TIP3      H1             -9.7640617950        1.8442039606       45.0138822908  TIP3      4268            0.0000000000
     37704      4468  TIP3      H2             -8.6525844010        1.6241383913       44.0295040798  TIP3      4268            0.0000000000
     37705      4469  TIP3      OH2           -12.2485311196       15.4379185941       41.8677861399  TIP3      4269            0.0000000000
     37706      4469  TIP3      H1            -12.1403030262       16.2256317220       41.2826310605  TIP3      4269            0.0000000000
     37707      4469  TIP3      H2            -12.6263491865       15.8792610497       42.6544734379  TIP3      4269            0.0000000000
     37708      4470  TIP3      OH2           -13.8261970327        2.3457245345       41.5492159056  TIP3      4270            0.0000000000
     37709      4470  TIP3      H1            -14.0804403495        3.0057841921       42.2115156072  TIP3      4270            0.0000000000
     37710      4470  TIP3      H2            -12.8734774188        2.2372339879       41.7803728611  TIP3      4270            0.0000000000
     37711      4471  TIP3      OH2            -4.8309570389        7.2205480182       47.5539286916  TIP3      4271            0.0000000000
     37712      4471  TIP3      H1             -5.6104249932        6.6677832861       47.7386546410  TIP3      4271            0.0000000000
     37713      4471  TIP3      H2             -4.1649654229        6.7796531204       48.1411979769  TIP3      4271            0.0000000000
     37714      4472  TIP3      OH2           -15.3175927045       12.8814715357       40.3852364184  TIP3      4272            0.0000000000
     37715      4472  TIP3      H1            -14.5692152794       13.1872660697       40.9326635396  TIP3      4272            0.0000000000
     37716      4472  TIP3      H2            -14.8207317561       12.3836130290       39.7084515702  TIP3      4272            0.0000000000
     37717      4473  TIP3      OH2           -17.0817199260        5.6590997440       39.7395226496  TIP3      4273            0.0000000000
     37718      4473  TIP3      H1            -16.7034138478        6.4773863409       40.1182671770  TIP3      4273            0.0000000000
     37719      4473  TIP3      H2            -17.8976181482        5.9835782343       39.3434405527  TIP3      4273            0.0000000000
     37720      4474  TIP3      OH2            -3.5811096611       16.5313717564       49.6471293908  TIP3      4274            0.0000000000
     37721      4474  TIP3      H1             -3.4709269065       17.2827627983       49.0233482581  TIP3      4274            0.0000000000
     37722      4474  TIP3      H2             -2.7333801954       16.5035985688       50.0973860858  TIP3      4274            0.0000000000
     37723      4475  TIP3      OH2           -16.1978597567        0.6401994063       47.9084201927  TIP3      4275            0.0000000000
     37724      4475  TIP3      H1            -16.3341675774        0.2658456590       47.0048246116  TIP3      4275            0.0000000000
     37725      4475  TIP3      H2            -16.3125597180       -0.1727193028       48.4357141447  TIP3      4275            0.0000000000
     37726      4476  TIP3      OH2           -17.5111903034       14.0680471257       44.4607326052  TIP3      4276            0.0000000000
     37727      4476  TIP3      H1            -18.2965623775       14.5870470802       44.7135632283  TIP3      4276            0.0000000000
     37728      4476  TIP3      H2            -17.2595075654       14.5346623620       43.6440993519  TIP3      4276            0.0000000000
     37729      4477  TIP3      OH2            -9.1613855063       15.6600714562       38.7475341321  TIP3      4277            0.0000000000
     37730      4477  TIP3      H1             -9.6680302798       14.8597404509       38.9918417526  TIP3      4277            0.0000000000
     37731      4477  TIP3      H2             -8.3545052382       15.2750584863       38.3319256776  TIP3      4277            0.0000000000
     37732      4478  TIP3      OH2            -4.6703172216       14.9636663354       38.8875502238  TIP3      4278            0.0000000000
     37733      4478  TIP3      H1             -4.5646007431       14.2368924139       39.5359582448  TIP3      4278            0.0000000000
     37734      4478  TIP3      H2             -3.8111289220       14.9841464894       38.4379787560  TIP3      4278            0.0000000000
     37735      4479  TIP3      OH2           -13.8659323430       11.0980239859       38.7798305176  TIP3      4279            0.0000000000
     37736      4479  TIP3      H1            -13.5895152389       10.7143774648       39.6241755960  TIP3      4279            0.0000000000
     37737      4479  TIP3      H2            -13.0738049266       10.9161302013       38.2247084448  TIP3      4279            0.0000000000
     37738      4480  TIP3      OH2            -8.2062805566       12.3569358856       38.6720159115  TIP3      4280            0.0000000000
     37739      4480  TIP3      H1             -8.5671089812       12.2014459424       39.5665098943  TIP3      4280            0.0000000000
     37740      4480  TIP3      H2             -8.1959127274       11.4280137997       38.3288325707  TIP3      4280            0.0000000000
     37741      4481  TIP3      OH2           -12.5754443097        9.2863658374       41.3933207133  TIP3      4281            0.0000000000
     37742      4481  TIP3      H1            -13.2754479568        8.7594657031       41.8110468577  TIP3      4281            0.0000000000
     37743      4481  TIP3      H2            -12.1390274962        8.6170860856       40.8318768723  TIP3      4281            0.0000000000
     37744      4482  TIP3      OH2           -11.3878932926        7.4586490001       39.3669917761  TIP3      4282            0.0000000000
     37745      4482  TIP3      H1            -11.4196840630        7.7102273223       38.4242074957  TIP3      4282            0.0000000000
     37746      4482  TIP3      H2            -10.4241150561        7.4651418357       39.5319600236  TIP3      4282            0.0000000000
     37747      4483  TIP3      OH2            -2.1829247947        9.4996126771       38.8390121850  TIP3      4283            0.0000000000
     37748      4483  TIP3      H1             -2.3872370074        9.1904418469       37.9318223302  TIP3      4283            0.0000000000
     37749      4483  TIP3      H2             -2.2469058487       10.4836523757       38.7290553617  TIP3      4283            0.0000000000
     37750      4484  TIP3      OH2           -11.7117870575       17.8775788066       40.9865489709  TIP3      4284            0.0000000000
     37751      4484  TIP3      H1            -10.7361445150       17.8580455299       40.9803037850  TIP3      4284            0.0000000000
     37752      4484  TIP3      H2            -11.8502066972       18.4916905091       40.2307335917  TIP3      4284            0.0000000000
     37753      4485  TIP3      OH2           -18.1182772570       12.5638067840       40.2951685518  TIP3      4285            0.0000000000
     37754      4485  TIP3      H1            -17.1471383412       12.6516167106       40.1693157863  TIP3      4285            0.0000000000
     37755      4485  TIP3      H2            -18.3588211190       11.9584595645       39.5510447699  TIP3      4285            0.0000000000
     37756      4486  TIP3      OH2           -19.1769920350       17.5711813068       44.7565469251  TIP3      4286            0.0000000000
     37757      4486  TIP3      H1            -20.0274977522       17.1203699523       44.5468295794  TIP3      4286            0.0000000000
     37758      4486  TIP3      H2            -18.9804591916       17.1501629889       45.6278250689  TIP3      4286            0.0000000000
     37759      4487  TIP3      OH2           -18.5588987529       16.0539111577       46.8168844927  TIP3      4287            0.0000000000
     37760      4487  TIP3      H1            -18.8236514844       15.1841056264       47.1978679687  TIP3      4287            0.0000000000
     37761      4487  TIP3      H2            -18.2500938483       16.5140611183       47.6176127772  TIP3      4287            0.0000000000
     37762      4488  TIP3      OH2            -1.8691566575       10.5465848529       42.6261246183  TIP3      4288            0.0000000000
     37763      4488  TIP3      H1             -0.9809595165       10.9443063554       42.7505709604  TIP3      4288            0.0000000000
     37764      4488  TIP3      H2             -1.8904734360        9.9188259450       43.3836650517  TIP3      4288            0.0000000000
     37765      4489  TIP3      OH2            -1.4943878225        8.8622366020       44.7715271886  TIP3      4289            0.0000000000
     37766      4489  TIP3      H1             -2.1686126243        8.3176060993       45.2247465975  TIP3      4289            0.0000000000
     37767      4489  TIP3      H2             -0.7166133025        8.7949745487       45.3584624438  TIP3      4289            0.0000000000
     37768      4490  TIP3      OH2            -1.1859973494       11.5178509170       49.6370881080  TIP3      4290            0.0000000000
     37769      4490  TIP3      H1             -0.5966443656       10.8382181383       49.2549360014  TIP3      4290            0.0000000000
     37770      4490  TIP3      H2             -1.3317204171       12.1544617579       48.9247823382  TIP3      4290            0.0000000000
     37771      4491  TIP3      OH2            -0.8722389157        8.3539732803       40.9905266923  TIP3      4291            0.0000000000
     37772      4491  TIP3      H1             -1.5497657431        8.5296001182       40.3070019959  TIP3      4291            0.0000000000
     37773      4491  TIP3      H2             -1.0923159535        9.0645252940       41.6217264178  TIP3      4291            0.0000000000
     37774      4492  TIP3      OH2            -2.6487689259        5.6031794291       39.4224729934  TIP3      4292            0.0000000000
     37775      4492  TIP3      H1             -2.6123912868        6.1945374885       38.6626430110  TIP3      4292            0.0000000000
     37776      4492  TIP3      H2             -2.9530332253        4.7625141433       39.0233669561  TIP3      4292            0.0000000000
     37777      4493  TIP3      OH2            -3.3301377828        6.9602227460       45.3887488446  TIP3      4293            0.0000000000
     37778      4493  TIP3      H1             -3.6987972044        6.1375439721       44.9993568066  TIP3      4293            0.0000000000
     37779      4493  TIP3      H2             -3.8131161247        7.0011792655       46.2478849800  TIP3      4293            0.0000000000
     37780      4494  TIP3      OH2           -18.7778656476        8.9859771386       48.8829089265  TIP3      4294            0.0000000000
     37781      4494  TIP3      H1            -18.3679303342        8.9156492465       47.9914686818  TIP3      4294            0.0000000000
     37782      4494  TIP3      H2            -17.9792905213        8.9450609673       49.4451432419  TIP3      4294            0.0000000000
     37783      4495  TIP3      OH2            -3.3116495359        3.0170154466       38.6313181878  TIP3      4295            0.0000000000
     37784      4495  TIP3      H1             -2.9221592883        2.6050788481       39.4284507148  TIP3      4295            0.0000000000
     37785      4495  TIP3      H2             -4.2438860093        2.7719267727       38.6637744257  TIP3      4295            0.0000000000
     37786      4496  TIP3      OH2            -4.1988371486        4.8870953130       43.8621367805  TIP3      4296            0.0000000000
     37787      4496  TIP3      H1             -4.0227570673        3.9226071773       44.0120183792  TIP3      4296            0.0000000000
     37788      4496  TIP3      H2             -3.4039570083        5.0548167613       43.3313928516  TIP3      4296            0.0000000000
     37789      4497  TIP3      OH2            -3.2333961711        5.5780293269       48.8572606555  TIP3      4297            0.0000000000
     37790      4497  TIP3      H1             -2.3082528268        5.3395067671       48.6889457873  TIP3      4297            0.0000000000
     37791      4497  TIP3      H2             -3.5336778085        4.7057941093       49.1967600097  TIP3      4297            0.0000000000
     37792      4498  TIP3      OH2            -3.3729714417        2.3923566666       43.8863363213  TIP3      4298            0.0000000000
     37793      4498  TIP3      H1             -3.0407918156        1.9053592929       44.6642365405  TIP3      4298            0.0000000000
     37794      4498  TIP3      H2             -3.8338287865        1.6743123631       43.4139325277  TIP3      4298            0.0000000000
     37795      4499  TIP3      OH2           -17.7762310542        2.8137278885       48.6517866007  TIP3      4299            0.0000000000
     37796      4499  TIP3      H1            -17.3280951819        1.9678630284       48.4279950032  TIP3      4299            0.0000000000
     37797      4499  TIP3      H2            -17.0850750163        3.2495565701       49.1897967579  TIP3      4299            0.0000000000
     37798      4500  TIP3      OH2           -19.3319006649        5.5544428970       49.7182015561  TIP3      4300            0.0000000000
     37799      4500  TIP3      H1            -18.8785241205        5.1807257406       48.9348971848  TIP3      4300            0.0000000000
     37800      4500  TIP3      H2            -18.9857031255        6.4576868041       49.6933888194  TIP3      4300            0.0000000000
     37801      4501  TIP3      OH2            -1.4864573523        1.8404835233       40.5861180226  TIP3      4301            0.0000000000
     37802      4501  TIP3      H1             -1.1050982244        1.3686337165       39.8087045712  TIP3      4301            0.0000000000
     37803      4501  TIP3      H2             -0.7006847065        2.3055417386       40.9391111404  TIP3      4301            0.0000000000
     37804      4502  TIP3      OH2           -19.0807016339        1.9952409744       43.4016332448  TIP3      4302            0.0000000000
     37805      4502  TIP3      H1            -20.0208714487        2.2100903159       43.4484740212  TIP3      4302            0.0000000000
     37806      4502  TIP3      H2            -18.7987022314        2.5355423492       42.6398830204  TIP3      4302            0.0000000000
     37807      4503  TIP3      OH2            -4.4925322708       17.0067803669       45.5560235141  TIP3      4303            0.0000000000
     37808      4503  TIP3      H1             -3.6828091835       16.7323966211       45.0763633008  TIP3      4303            0.0000000000
     37809      4503  TIP3      H2             -4.1616885823       17.6793373553       46.1749686809  TIP3      4303            0.0000000000
     37810      4504  TIP3      OH2           -16.8361532896       17.0140090184       48.9240058474  TIP3      4304            0.0000000000
     37811      4504  TIP3      H1            -16.9987791274       16.7182912776       49.8258468477  TIP3      4304            0.0000000000
     37812      4504  TIP3      H2            -16.2037642896       16.3363916929       48.5883460229  TIP3      4304            0.0000000000
     37813      4505  TIP3      OH2           -15.0443495706       15.3469088499       47.8447199692  TIP3      4305            0.0000000000
     37814      4505  TIP3      H1            -15.4397341169       14.4456897222       47.7941103747  TIP3      4305            0.0000000000
     37815      4505  TIP3      H2            -14.1675902193       15.1342179940       48.1909318318  TIP3      4305            0.0000000000
     37816      4506  TIP3      OH2           -12.4569245409       15.9362403355       49.0167371988  TIP3      4306            0.0000000000
     37817      4506  TIP3      H1            -12.2545060437       15.4643322253       48.1933050312  TIP3      4306            0.0000000000
     37818      4506  TIP3      H2            -12.0469732507       15.3019792907       49.6278302472  TIP3      4306            0.0000000000
     37819      4507  TIP3      OH2            -8.9496903490        1.9943912038       47.9225864019  TIP3      4307            0.0000000000
     37820      4507  TIP3      H1             -9.5435255685        1.2654920775       48.1880154020  TIP3      4307            0.0000000000
     37821      4507  TIP3      H2             -8.1451876817        1.4900866896       47.7371850981  TIP3      4307            0.0000000000
     37822      4508  TIP3      OH2            -3.5231153457        0.0016894377       47.9164677126  TIP3      4308            0.0000000000
     37823      4508  TIP3      H1             -3.0164934742        0.4026740680       47.1695951139  TIP3      4308            0.0000000000
     37824      4508  TIP3      H2             -4.4550120702        0.2252718532       47.7118834461  TIP3      4308            0.0000000000
     37825      4509  TIP3      OH2            -2.0124443122        0.8162714128       45.8334378401  TIP3      4309            0.0000000000
     37826      4509  TIP3      H1             -1.3595863303        0.2796583410       45.3434449584  TIP3      4309            0.0000000000
     37827      4509  TIP3      H2             -1.4824765436        1.6234044454       46.0419536214  TIP3      4309            0.0000000000
     37828      4510  TIP3      OH2           -16.6481285790       -0.1532720588       45.4326886714  TIP3      4310            0.0000000000
     37829      4510  TIP3      H1            -17.4576402524       -0.3535541762       44.9180404244  TIP3      4310            0.0000000000
     37830      4510  TIP3      H2            -16.2190651273       -1.0418793176       45.4128068511  TIP3      4310            0.0000000000
     37831      4511  TIP3      OH2           -17.5082720163       -0.0420997938       41.6047663248  TIP3      4311            0.0000000000
     37832      4511  TIP3      H1            -17.2605369463        0.6468231962       40.9573837479  TIP3      4311            0.0000000000
     37833      4511  TIP3      H2            -18.2242136139        0.4055478266       42.0942786515  TIP3      4311            0.0000000000
     37834      4512  TIP3      OH2           -12.2826715568       -0.3679677560       45.6023157813  TIP3      4312            0.0000000000
     37835      4512  TIP3      H1            -11.5399441427       -0.0500730130       45.0821105188  TIP3      4312            0.0000000000
     37836      4512  TIP3      H2            -11.9336296405       -0.2755924418       46.5012329109  TIP3      4312            0.0000000000
     37837      4513  TIP3      OH2            -6.0814091327        0.2399653784       47.0141168805  TIP3      4313            0.0000000000
     37838      4513  TIP3      H1             -6.2935122921        0.4137011239       46.0948065125  TIP3      4313            0.0000000000
     37839      4513  TIP3      H2             -6.5848777392       -0.5791370760       47.2065791754  TIP3      4313            0.0000000000
     37840      4514  TIP3      OH2            -5.0662502452        0.2885336156       43.2007130583  TIP3      4314            0.0000000000
     37841      4514  TIP3      H1             -5.8934857945        0.7904708662       43.2825760642  TIP3      4314            0.0000000000
     37842      4514  TIP3      H2             -5.3456269341       -0.6284420137       43.4108738568  TIP3      4314            0.0000000000
     37843      4515  TIP3      OH2           -17.7415265600       15.9887524881       42.5642698416  TIP3      4315            0.0000000000
     37844      4515  TIP3      H1            -18.7099143589       16.0256524191       42.4866418817  TIP3      4315            0.0000000000
     37845      4515  TIP3      H2            -17.5341982054       16.8563351079       42.1671581753  TIP3      4315            0.0000000000
     37846      4516  TIP3      OH2           -16.4984007292        1.8560196611       39.7928155707  TIP3      4316            0.0000000000
     37847      4516  TIP3      H1            -15.8787965568        1.2724804005       39.3153993384  TIP3      4316            0.0000000000
     37848      4516  TIP3      H2            -15.9858536741        2.0889245802       40.5763914634  TIP3      4316            0.0000000000
     37849      4517  TIP3      OH2           -11.0081800645        2.2634892410       42.1562609086  TIP3      4317            0.0000000000
     37850      4517  TIP3      H1            -10.6756884935        1.6119480544       42.7997106997  TIP3      4317            0.0000000000
     37851      4517  TIP3      H2            -10.7191210520        3.0882901050       42.6174648115  TIP3      4317            0.0000000000
     37852      4518  TIP3      OH2            -8.8452246913       17.3585802985       40.7518624153  TIP3      4318            0.0000000000
     37853      4518  TIP3      H1             -7.8819918579       17.3604751013       40.5810735371  TIP3      4318            0.0000000000
     37854      4518  TIP3      H2             -9.1116693864       16.7877913295       39.9898291690  TIP3      4318            0.0000000000
     37855      4519  TIP3      OH2            -2.4944442600       16.3482798340       43.7940230791  TIP3      4319            0.0000000000
     37856      4519  TIP3      H1             -2.7581720794       15.5875415138       43.2218253123  TIP3      4319            0.0000000000
     37857      4519  TIP3      H2             -2.4542922803       17.0663589875       43.1297652841  TIP3      4319            0.0000000000
     37858      4520  TIP3      OH2           -16.4877073272       16.8625603085       39.4010517118  TIP3      4320            0.0000000000
     37859      4520  TIP3      H1            -16.6872270287       17.1111229161       40.3193522798  TIP3      4320            0.0000000000
     37860      4520  TIP3      H2            -15.7994539907       16.1855360630       39.5303333133  TIP3      4320            0.0000000000
     37861      4521  TIP3      OH2            11.5626824813        9.4697698901       45.3994638286  TIP3      4321            0.0000000000
     37862      4521  TIP3      H1             11.5493110093       10.4066576506       45.6826111899  TIP3      4321            0.0000000000
     37863      4521  TIP3      H2             10.6772021880        9.3670730796       45.0251254345  TIP3      4321            0.0000000000
     37864      4522  TIP3      OH2            10.1179299266        8.2853959145       48.8154683761  TIP3      4322            0.0000000000
     37865      4522  TIP3      H1             10.2457183688        8.1770875209       49.7789436004  TIP3      4322            0.0000000000
     37866      4522  TIP3      H2              9.5209849348        7.5539319533       48.5961690468  TIP3      4322            0.0000000000
     37867      4523  TIP3      OH2            13.2207198860       11.4558547676       47.0450360529  TIP3      4323            0.0000000000
     37868      4523  TIP3      H1             13.1168192145       10.6345864776       47.5690988155  TIP3      4323            0.0000000000
     37869      4523  TIP3      H2             13.6351253593       12.0410141794       47.7257281848  TIP3      4323            0.0000000000
     37870      4524  TIP3      OH2             3.7447090340       12.7307199224       48.9732442128  TIP3      4324            0.0000000000
     37871      4524  TIP3      H1              3.5734272321       11.8011303776       48.7201100738  TIP3      4324            0.0000000000
     37872      4524  TIP3      H2              4.7059728933       12.8068097263       48.8370621818  TIP3      4324            0.0000000000
     37873      4525  TIP3      OH2             0.3088339056        5.5353649231       44.6233756668  TIP3      4325            0.0000000000
     37874      4525  TIP3      H1              0.2986615795        6.4390529337       44.9723037934  TIP3      4325            0.0000000000
     37875      4525  TIP3      H2             -0.6095188012        5.4623392099       44.3214232867  TIP3      4325            0.0000000000
     37876      4526  TIP3      OH2             0.9878868208        8.4068396774       46.7002524949  TIP3      4326            0.0000000000
     37877      4526  TIP3      H1              1.3353197507        7.6240866481       47.1764696664  TIP3      4326            0.0000000000
     37878      4526  TIP3      H2              1.6246670075        9.1025039394       46.9515400519  TIP3      4326            0.0000000000
     37879      4527  TIP3      OH2            10.9266003898       17.0257013636       47.7005567038  TIP3      4327            0.0000000000
     37880      4527  TIP3      H1             11.5319658375       16.4437702218       47.1874981075  TIP3      4327            0.0000000000
     37881      4527  TIP3      H2             10.6112531433       16.3532983505       48.3115624842  TIP3      4327            0.0000000000
     37882      4528  TIP3      OH2             8.7967317482       11.3614127109       49.8004699344  TIP3      4328            0.0000000000
     37883      4528  TIP3      H1              9.1666881683       10.8487622098       49.0660132427  TIP3      4328            0.0000000000
     37884      4528  TIP3      H2              9.4242011203       10.9940105431       50.4762776252  TIP3      4328            0.0000000000
     37885      4529  TIP3      OH2            11.8371250560        5.4483629374       49.8390832837  TIP3      4329            0.0000000000
     37886      4529  TIP3      H1             11.9515862492        4.4976535132       49.9634833065  TIP3      4329            0.0000000000
     37887      4529  TIP3      H2             11.7664016676        5.5311679927       48.8679838650  TIP3      4329            0.0000000000
     37888      4530  TIP3      OH2             5.2255719115        3.2380440560       47.0776150473  TIP3      4330            0.0000000000
     37889      4530  TIP3      H1              5.3692793858        3.9884316252       46.4645679722  TIP3      4330            0.0000000000
     37890      4530  TIP3      H2              4.7715865264        2.6207207425       46.4869876850  TIP3      4330            0.0000000000
     37891      4531  TIP3      OH2            12.3326456324        3.8051279955       45.5069525516  TIP3      4331            0.0000000000
     37892      4531  TIP3      H1             12.8972838490        3.3050042930       46.1451903617  TIP3      4331            0.0000000000
     37893      4531  TIP3      H2             13.0242744144        4.3571186668       45.1017955432  TIP3      4331            0.0000000000
     37894      4532  TIP3      OH2             1.3909873567        5.6703764309       47.5760261131  TIP3      4332            0.0000000000
     37895      4532  TIP3      H1              2.0151424503        5.0954100139       48.0615503615  TIP3      4332            0.0000000000
     37896      4532  TIP3      H2              1.6127316936        5.4362661144       46.6546158937  TIP3      4332            0.0000000000
     37897      4533  TIP3      OH2             6.4931817090        7.3859844987       47.1633702292  TIP3      4333            0.0000000000
     37898      4533  TIP3      H1              7.1928561162        6.8130324966       47.5299967130  TIP3      4333            0.0000000000
     37899      4533  TIP3      H2              6.0173614562        6.7168532555       46.6148939027  TIP3      4333            0.0000000000
     37900      4534  TIP3      OH2            10.6699315413       11.8776948496       44.3250986474  TIP3      4334            0.0000000000
     37901      4534  TIP3      H1             10.4765441820       11.7937002822       43.3733516816  TIP3      4334            0.0000000000
     37902      4534  TIP3      H2             10.5097354382       12.8413411876       44.4594442220  TIP3      4334            0.0000000000
     37903      4535  TIP3      OH2            14.1663841194        2.9811436829       47.1633842513  TIP3      4335            0.0000000000
     37904      4535  TIP3      H1             13.5770948819        2.7939660681       47.9308426302  TIP3      4335            0.0000000000
     37905      4535  TIP3      H2             15.0425151237        2.8698221467       47.5581604677  TIP3      4335            0.0000000000
     37906      4536  TIP3      OH2             3.4273899562        4.3386974666       48.8993455222  TIP3      4336            0.0000000000
     37907      4536  TIP3      H1              3.7881882657        5.2375914246       48.9885481308  TIP3      4336            0.0000000000
     37908      4536  TIP3      H2              3.9057718235        4.0183390595       48.1091899685  TIP3      4336            0.0000000000
     37909      4537  TIP3      OH2             0.7750595502       11.4581433059       42.6778667739  TIP3      4337            0.0000000000
     37910      4537  TIP3      H1              0.6974028925       12.0012628895       41.8564227684  TIP3      4337            0.0000000000
     37911      4537  TIP3      H2              0.9159959138       12.1371013425       43.3551511884  TIP3      4337            0.0000000000
     37912      4538  TIP3      OH2            14.4732561273       12.8951816076       48.9365865331  TIP3      4338            0.0000000000
     37913      4538  TIP3      H1             14.0640473333       12.3703968198       49.6552474862  TIP3      4338            0.0000000000
     37914      4538  TIP3      H2             15.0913984922       13.4124272415       49.4653691711  TIP3      4338            0.0000000000
     37915      4539  TIP3      OH2             7.6682412139       -0.0509125061       48.1904640377  TIP3      4339            0.0000000000
     37916      4539  TIP3      H1              7.9015571110       -0.9984004063       48.2561318168  TIP3      4339            0.0000000000
     37917      4539  TIP3      H2              6.7708707072        0.0153733981       48.5773994966  TIP3      4339            0.0000000000
     37918      4540  TIP3      OH2            12.5399061882       15.4644086295       46.3987685011  TIP3      4340            0.0000000000
     37919      4540  TIP3      H1             12.8856953446       14.6379829147       46.0093691165  TIP3      4340            0.0000000000
     37920      4540  TIP3      H2             13.2864092156       16.0695130385       46.1608992931  TIP3      4340            0.0000000000
     37921      4541  TIP3      OH2            13.8865107847       13.3934941982       45.0943037574  TIP3      4341            0.0000000000
     37922      4541  TIP3      H1             13.6590617392       12.8187224008       44.3444709209  TIP3      4341            0.0000000000
     37923      4541  TIP3      H2             13.8214040848       12.7587719027       45.8355697466  TIP3      4341            0.0000000000
     37924      4542  TIP3      OH2             9.8846530706        8.5320791419       42.8187924752  TIP3      4342            0.0000000000
     37925      4542  TIP3      H1              9.4423111006        9.4032558579       42.7927008646  TIP3      4342            0.0000000000
     37926      4542  TIP3      H2             10.7633765630        8.7537264866       42.4538386576  TIP3      4342            0.0000000000
     37927      4543  TIP3      OH2            10.3088705671        7.5629365482       39.8057920938  TIP3      4343            0.0000000000
     37928      4543  TIP3      H1             10.9058599548        8.0143037989       40.4343471036  TIP3      4343            0.0000000000
     37929      4543  TIP3      H2             10.4015333413        6.6549282654       40.1269479169  TIP3      4343            0.0000000000
     37930      4544  TIP3      OH2            13.8246258330        8.6107631498       44.0817337398  TIP3      4344            0.0000000000
     37931      4544  TIP3      H1             13.0591908604        8.9368703743       44.6106810369  TIP3      4344            0.0000000000
     37932      4544  TIP3      H2             14.4032188153        8.2502090665       44.7739456955  TIP3      4344            0.0000000000
     37933      4545  TIP3      OH2             5.0338322527        9.1825134728       45.7569994245  TIP3      4345            0.0000000000
     37934      4545  TIP3      H1              4.6677037801        8.7114705105       44.9785437871  TIP3      4345            0.0000000000
     37935      4545  TIP3      H2              5.6956370501        8.5487327108       46.1074771672  TIP3      4345            0.0000000000
     37936      4546  TIP3      OH2             6.5394643006       13.0637083008       48.7067832793  TIP3      4346            0.0000000000
     37937      4546  TIP3      H1              6.5895817034       12.7359787521       47.8001638095  TIP3      4346            0.0000000000
     37938      4546  TIP3      H2              7.0858529790       12.3836094669       49.1651113623  TIP3      4346            0.0000000000
     37939      4547  TIP3      OH2             5.0559193815        7.4660935554       49.4271611751  TIP3      4347            0.0000000000
     37940      4547  TIP3      H1              5.4770237230        7.5072904282       48.5441508746  TIP3      4347            0.0000000000
     37941      4547  TIP3      H2              5.3235637806        8.3295759166       49.8002678883  TIP3      4347            0.0000000000
     37942      4548  TIP3      OH2            12.4123190376        8.4015664216       41.7907685341  TIP3      4348            0.0000000000
     37943      4548  TIP3      H1             13.0585298904        8.6030323713       42.5059656692  TIP3      4348            0.0000000000
     37944      4548  TIP3      H2             12.9432625216        8.6527668604       40.9895138925  TIP3      4348            0.0000000000
     37945      4549  TIP3      OH2            10.2182613892       14.4648198109       44.6487367523  TIP3      4349            0.0000000000
     37946      4549  TIP3      H1             10.6999409759       14.6989427407       45.4466217850  TIP3      4349            0.0000000000
     37947      4549  TIP3      H2              9.7157517731       15.2657952160       44.4565599300  TIP3      4349            0.0000000000
     37948      4550  TIP3      OH2            16.0572477911       -0.5886722663       41.9373511748  TIP3      4350            0.0000000000
     37949      4550  TIP3      H1             15.1389798750       -0.4397814826       42.2395765702  TIP3      4350            0.0000000000
     37950      4550  TIP3      H2             16.2173374071        0.1669892734       41.3438479021  TIP3      4350            0.0000000000
     37951      4551  TIP3      OH2             3.6513488552        8.1969124277       43.5766548885  TIP3      4351            0.0000000000
     37952      4551  TIP3      H1              3.4615390151        9.0355574710       43.1077996600  TIP3      4351            0.0000000000
     37953      4551  TIP3      H2              3.4755770138        7.5393183222       42.8866267361  TIP3      4351            0.0000000000
     37954      4552  TIP3      OH2            17.4082629276       13.9197127115       40.2708052589  TIP3      4352            0.0000000000
     37955      4552  TIP3      H1             17.6786881598       14.8633398389       40.2488076578  TIP3      4352            0.0000000000
     37956      4552  TIP3      H2             18.2849988334       13.4743259128       40.2916519161  TIP3      4352            0.0000000000
     37957      4553  TIP3      OH2             0.1920359736       14.0329840834       48.6107200255  TIP3      4353            0.0000000000
     37958      4553  TIP3      H1              0.9439405938       13.5039539151       48.9259793018  TIP3      4353            0.0000000000
     37959      4553  TIP3      H2             -0.0425200723       14.5913735218       49.3588545732  TIP3      4353            0.0000000000
     37960      4554  TIP3      OH2             9.6835791722       17.3227397484       43.5533635512  TIP3      4354            0.0000000000
     37961      4554  TIP3      H1              9.7326150523       17.4535167764       42.5835050739  TIP3      4354            0.0000000000
     37962      4554  TIP3      H2              9.5819099524       18.2500305194       43.8660405936  TIP3      4354            0.0000000000
     37963      4555  TIP3      OH2             3.2612872112       16.2958426418       45.2408934637  TIP3      4355            0.0000000000
     37964      4555  TIP3      H1              3.4852567994       16.1317539809       46.1842454684  TIP3      4355            0.0000000000
     37965      4555  TIP3      H2              2.3984986889       15.8421065016       45.1620970963  TIP3      4355            0.0000000000
     37966      4556  TIP3      OH2            12.7251117448       16.8327567119       40.5173824883  TIP3      4356            0.0000000000
     37967      4556  TIP3      H1             13.2310272502       16.0493459804       40.1785768577  TIP3      4356            0.0000000000
     37968      4556  TIP3      H2             12.8088599245       16.7276186572       41.4851065434  TIP3      4356            0.0000000000
     37969      4557  TIP3      OH2            12.3214379012       16.8205962331       43.2757358522  TIP3      4357            0.0000000000
     37970      4557  TIP3      H1             11.3797869191       17.0359871471       43.4493273088  TIP3      4357            0.0000000000
     37971      4557  TIP3      H2             12.4277462048       16.0214227535       43.8168601323  TIP3      4357            0.0000000000
     37972      4558  TIP3      OH2             5.1073289472        0.8550005881       49.1363312897  TIP3      4358            0.0000000000
     37973      4558  TIP3      H1              4.4271928068        0.7616542254       48.4324448435  TIP3      4358            0.0000000000
     37974      4558  TIP3      H2              4.8914384215        1.7425334928       49.4305300168  TIP3      4358            0.0000000000
     37975      4559  TIP3      OH2            13.9896752838        9.3665481990       39.9286950572  TIP3      4359            0.0000000000
     37976      4559  TIP3      H1             13.7962424097        9.4434662991       38.9733712694  TIP3      4359            0.0000000000
     37977      4559  TIP3      H2             14.9565293769        9.5287116228       39.9182777059  TIP3      4359            0.0000000000
     37978      4560  TIP3      OH2             9.5507642457        2.9711160710       39.9529136282  TIP3      4360            0.0000000000
     37979      4560  TIP3      H1              9.1259517116        3.0268573814       40.8266108491  TIP3      4360            0.0000000000
     37980      4560  TIP3      H2              8.9181780376        2.3699301220       39.5258866015  TIP3      4360            0.0000000000
     37981      4561  TIP3      OH2             5.4348311198        5.5442879907       45.6763028941  TIP3      4361            0.0000000000
     37982      4561  TIP3      H1              4.4819553309        5.6554331705       45.5121220738  TIP3      4361            0.0000000000
     37983      4561  TIP3      H2              5.7374231567        5.4484696891       44.7341656429  TIP3      4361            0.0000000000
     37984      4562  TIP3      OH2            10.8498241576        6.5098557573       44.1743414832  TIP3      4362            0.0000000000
     37985      4562  TIP3      H1             10.4455756942        7.2271077199       43.6198260282  TIP3      4362            0.0000000000
     37986      4562  TIP3      H2             11.4186409837        6.1077919497       43.4981454976  TIP3      4362            0.0000000000
     37987      4563  TIP3      OH2            11.4958461933        5.9714460478       47.1992265104  TIP3      4363            0.0000000000
     37988      4563  TIP3      H1             11.2975770937        6.7174346100       46.6047279205  TIP3      4363            0.0000000000
     37989      4563  TIP3      H2             11.6737246725        5.2595822487       46.5520112759  TIP3      4363            0.0000000000
     37990      4564  TIP3      OH2             5.9167885730        3.4225421807       39.3067075841  TIP3      4364            0.0000000000
     37991      4564  TIP3      H1              5.4216902322        2.8988903903       39.9808491857  TIP3      4364            0.0000000000
     37992      4564  TIP3      H2              5.2172567683        3.7050991716       38.6941023119  TIP3      4364            0.0000000000
     37993      4565  TIP3      OH2            -0.6690160763        3.0345853774       46.4056256106  TIP3      4365            0.0000000000
     37994      4565  TIP3      H1             -0.0916252512        3.1136952369       47.1867824786  TIP3      4365            0.0000000000
     37995      4565  TIP3      H2             -0.0965493288        3.3359766504       45.6837125376  TIP3      4365            0.0000000000
     37996      4566  TIP3      OH2             0.4535006529        3.6051822188       41.4297782843  TIP3      4366            0.0000000000
     37997      4566  TIP3      H1              1.1260107465        3.9848410274       40.8333542564  TIP3      4366            0.0000000000
     37998      4566  TIP3      H2             -0.1305146093        4.3870971635       41.5385666516  TIP3      4366            0.0000000000
     37999      4567  TIP3      OH2             8.1831579773        3.2071431932       46.2693746837  TIP3      4367            0.0000000000
     38000      4567  TIP3      H1              7.3436198347        3.1545166423       46.7563258070  TIP3      4367            0.0000000000
     38001      4567  TIP3      H2              8.8189273456        2.8929831187       46.9456887571  TIP3      4367            0.0000000000
     38002      4568  TIP3      OH2             2.7871133580        4.7609089372       45.3734236048  TIP3      4368            0.0000000000
     38003      4568  TIP3      H1              1.9511660454        4.9345937269       44.8884727032  TIP3      4368            0.0000000000
     38004      4568  TIP3      H2              3.0973997305        3.9473345318       44.9226463557  TIP3      4368            0.0000000000
     38005      4569  TIP3      OH2             5.9775731877        5.2346189724       43.1678433591  TIP3      4369            0.0000000000
     38006      4569  TIP3      H1              6.9130299129        5.0350568527       42.9925433357  TIP3      4369            0.0000000000
     38007      4569  TIP3      H2              5.6738037196        5.6658901529       42.3499792847  TIP3      4369            0.0000000000
     38008      4570  TIP3      OH2            12.3500374787        2.8031897200       49.2157087321  TIP3      4370            0.0000000000
     38009      4570  TIP3      H1             12.2923688518        2.8027110307       50.1936207409  TIP3      4370            0.0000000000
     38010      4570  TIP3      H2             11.4006342053        2.7306911080       48.9997099572  TIP3      4370            0.0000000000
     38011      4571  TIP3      OH2             4.8178244761        6.3224148693       40.4517981046  TIP3      4371            0.0000000000
     38012      4571  TIP3      H1              4.4781162733        5.6399955750       39.8458613903  TIP3      4371            0.0000000000
     38013      4571  TIP3      H2              5.6959350651        6.4473790483       40.0466618832  TIP3      4371            0.0000000000
     38014      4572  TIP3      OH2             8.8703144717        5.8160169112       48.4023350780  TIP3      4372            0.0000000000
     38015      4572  TIP3      H1              9.6489334745        5.7175839919       47.8149320108  TIP3      4372            0.0000000000
     38016      4572  TIP3      H2              9.2174048599        5.5449757002       49.2658947499  TIP3      4372            0.0000000000
     38017      4573  TIP3      OH2             3.4785836603        2.1291853655       44.8545180075  TIP3      4373            0.0000000000
     38018      4573  TIP3      H1              2.8530764608        1.5021794530       45.2848267264  TIP3      4373            0.0000000000
     38019      4573  TIP3      H2              3.9703230937        1.4886551561       44.3281671160  TIP3      4373            0.0000000000
     38020      4574  TIP3      OH2             8.3360204228       10.7324821417       42.5983772706  TIP3      4374            0.0000000000
     38021      4574  TIP3      H1              7.5882568819       10.2536535618       42.1774598176  TIP3      4374            0.0000000000
     38022      4574  TIP3      H2              7.9164392976       10.9728038660       43.4616105690  TIP3      4374            0.0000000000
     38023      4575  TIP3      OH2            12.0575168391        3.3606890595       40.8616742815  TIP3      4375            0.0000000000
     38024      4575  TIP3      H1             11.2019376405        3.4112206440       40.3886144882  TIP3      4375            0.0000000000
     38025      4575  TIP3      H2             12.1983063995        4.3182896496       41.0481386067  TIP3      4375            0.0000000000
     38026      4576  TIP3      OH2            12.5408711011        5.6764633204       42.0507125841  TIP3      4376            0.0000000000
     38027      4576  TIP3      H1             13.2009866915        5.3836520757       42.7029967893  TIP3      4376            0.0000000000
     38028      4576  TIP3      H2             12.8932543146        6.5500513200       41.8168921118  TIP3      4376            0.0000000000
     38029      4577  TIP3      OH2             3.0960560475       10.1518827353       48.0540736776  TIP3      4377            0.0000000000
     38030      4577  TIP3      H1              3.3992091814       10.2458918116       47.1369800219  TIP3      4377            0.0000000000
     38031      4577  TIP3      H2              3.8858429505        9.7926347938       48.4912615128  TIP3      4377            0.0000000000
     38032      4578  TIP3      OH2            10.2770754730       12.1375678569       41.4666634209  TIP3      4378            0.0000000000
     38033      4578  TIP3      H1              9.8369876793       13.0120850598       41.5400197736  TIP3      4378            0.0000000000
     38034      4578  TIP3      H2              9.5671734400       11.5392604205       41.7836903436  TIP3      4378            0.0000000000
     38035      4579  TIP3      OH2            17.4961631940        5.2254501617       42.0460994960  TIP3      4379            0.0000000000
     38036      4579  TIP3      H1             16.9026156812        5.2885949397       41.2732014343  TIP3      4379            0.0000000000
     38037      4579  TIP3      H2             17.8681113977        6.1215029218       42.0569593921  TIP3      4379            0.0000000000
     38038      4580  TIP3      OH2            15.4979319677       14.5193646494       42.0548955537  TIP3      4380            0.0000000000
     38039      4580  TIP3      H1             15.3842630175       13.8355270597       42.7349034209  TIP3      4380            0.0000000000
     38040      4580  TIP3      H2             16.2196192043       14.1571085111       41.4920360985  TIP3      4380            0.0000000000
     38041      4581  TIP3      OH2            13.0627421918        9.0964843489       48.9855444401  TIP3      4381            0.0000000000
     38042      4581  TIP3      H1             12.0914771596        9.0771707755       49.1100778064  TIP3      4381            0.0000000000
     38043      4581  TIP3      H2             13.2012808518        8.4150992939       48.3013212095  TIP3      4381            0.0000000000
     38044      4582  TIP3      OH2             5.3387302028       13.6282714401       45.9596447841  TIP3      4382            0.0000000000
     38045      4582  TIP3      H1              5.8616965876       14.4487658875       45.9354817625  TIP3      4382            0.0000000000
     38046      4582  TIP3      H2              4.6771296384       13.8233761185       45.2826744201  TIP3      4382            0.0000000000
     38047      4583  TIP3      OH2             1.8962063812        8.5768367555       40.2300270393  TIP3      4383            0.0000000000
     38048      4583  TIP3      H1              2.3324464632        9.1679749217       40.8794542071  TIP3      4383            0.0000000000
     38049      4583  TIP3      H2              0.9359489589        8.6765580696       40.4157189457  TIP3      4383            0.0000000000
     38050      4584  TIP3      OH2             6.8863916749       11.2284616339       44.8460191049  TIP3      4384            0.0000000000
     38051      4584  TIP3      H1              6.4570247087       12.0163700306       45.2182075001  TIP3      4384            0.0000000000
     38052      4584  TIP3      H2              6.4362471818       10.5068094188       45.3226519689  TIP3      4384            0.0000000000
     38053      4585  TIP3      OH2             5.8584869107       16.0551072354       44.4381861262  TIP3      4385            0.0000000000
     38054      4585  TIP3      H1              4.8943775118       16.1599432038       44.5743239572  TIP3      4385            0.0000000000
     38055      4585  TIP3      H2              6.1554186224       16.9141364757       44.8115321301  TIP3      4385            0.0000000000
     38056      4586  TIP3      OH2            13.6216689441       12.4507411755       40.1870984758  TIP3      4386            0.0000000000
     38057      4586  TIP3      H1             13.7363718460       12.1483073487       41.1066516579  TIP3      4386            0.0000000000
     38058      4586  TIP3      H2             12.6855911730       12.2271503587       40.0753316671  TIP3      4386            0.0000000000
     38059      4587  TIP3      OH2            17.9998428664       16.7043067022       40.6164053894  TIP3      4387            0.0000000000
     38060      4587  TIP3      H1             18.7019706331       17.3715660652       40.4724989300  TIP3      4387            0.0000000000
     38061      4587  TIP3      H2             17.2926855606       17.2810364891       40.9904156370  TIP3      4387            0.0000000000
     38062      4588  TIP3      OH2            14.2816784541       11.1907330679       42.6101966904  TIP3      4388            0.0000000000
     38063      4588  TIP3      H1             13.9995012598       10.3190329381       42.9615148915  TIP3      4388            0.0000000000
     38064      4588  TIP3      H2             15.2350284168       11.0505954009       42.5032350531  TIP3      4388            0.0000000000
     38065      4589  TIP3      OH2             7.5354941962       13.8956017351       38.8097234395  TIP3      4389            0.0000000000
     38066      4589  TIP3      H1              7.4071777980       13.2601065622       38.0833760079  TIP3      4389            0.0000000000
     38067      4589  TIP3      H2              6.8785219646       13.5734063663       39.4576308818  TIP3      4389            0.0000000000
     38068      4590  TIP3      OH2             6.2531456779       12.9665170765       41.2583091022  TIP3      4390            0.0000000000
     38069      4590  TIP3      H1              6.9909905838       12.6209583060       41.7851125712  TIP3      4390            0.0000000000
     38070      4590  TIP3      H2              6.3270129404       13.9225986307       41.4821271278  TIP3      4390            0.0000000000
     38071      4591  TIP3      OH2             3.0983846596       10.3353106795       41.8486347014  TIP3      4391            0.0000000000
     38072      4591  TIP3      H1              2.2488974278       10.7036276084       42.1539082522  TIP3      4391            0.0000000000
     38073      4591  TIP3      H2              3.5027035372       11.1105978814       41.4262862273  TIP3      4391            0.0000000000
     38074      4592  TIP3      OH2            11.3708448002        2.5657613055       43.3353364753  TIP3      4392            0.0000000000
     38075      4592  TIP3      H1             11.7544466605        2.9010876744       42.5003992478  TIP3      4392            0.0000000000
     38076      4592  TIP3      H2             11.8307008877        3.0950715975       44.0243252032  TIP3      4392            0.0000000000
     38077      4593  TIP3      OH2             9.1535523531       14.6674786198       41.6349667498  TIP3      4393            0.0000000000
     38078      4593  TIP3      H1              8.2822058431       15.0543651074       41.8710864977  TIP3      4393            0.0000000000
     38079      4593  TIP3      H2              9.7080767760       15.4713673109       41.5828201113  TIP3      4393            0.0000000000
     38080      4594  TIP3      OH2             8.5782647180        4.4292463557       43.9036323341  TIP3      4394            0.0000000000
     38081      4594  TIP3      H1              9.1962868124        5.1578321919       44.0997695180  TIP3      4394            0.0000000000
     38082      4594  TIP3      H2              8.4481650413        3.9958507453       44.7819500430  TIP3      4394            0.0000000000
     38083      4595  TIP3      OH2             9.3946957760        1.1303718610       44.3860000719  TIP3      4395            0.0000000000
     38084      4595  TIP3      H1              9.0659490418        1.8220138386       44.9808141919  TIP3      4395            0.0000000000
     38085      4595  TIP3      H2             10.2384635012        1.5622849145       44.0794948523  TIP3      4395            0.0000000000
     38086      4596  TIP3      OH2             6.5882957909       15.4972418149       41.8279943143  TIP3      4396            0.0000000000
     38087      4596  TIP3      H1              6.7038156063       16.2892099615       41.2483259036  TIP3      4396            0.0000000000
     38088      4596  TIP3      H2              6.2167817295       15.9283240271       42.6300593231  TIP3      4396            0.0000000000
     38089      4597  TIP3      OH2             4.9448270640        2.3796598828       41.6019976820  TIP3      4397            0.0000000000
     38090      4597  TIP3      H1              4.8722480996        3.1684437933       42.1633805380  TIP3      4397            0.0000000000
     38091      4597  TIP3      H2              5.8955510652        2.1726470674       41.7190641592  TIP3      4397            0.0000000000
     38092      4598  TIP3      OH2            14.1063705890        7.0835470528       47.4763234737  TIP3      4398            0.0000000000
     38093      4598  TIP3      H1             13.3257255718        6.6183399735       47.8045891520  TIP3      4398            0.0000000000
     38094      4598  TIP3      H2             14.7594620084        6.7826325833       48.1515105360  TIP3      4398            0.0000000000
     38095      4599  TIP3      OH2             3.4854129894       12.8129915385       40.3792271130  TIP3      4399            0.0000000000
     38096      4599  TIP3      H1              4.2388640464       13.1393622490       40.9106324578  TIP3      4399            0.0000000000
     38097      4599  TIP3      H2              3.9511746090       12.3239382558       39.6762615940  TIP3      4399            0.0000000000
     38098      4600  TIP3      OH2             1.7089741298        5.6735622690       39.8195850014  TIP3      4400            0.0000000000
     38099      4600  TIP3      H1              2.1244035764        6.4687767801       40.2063031956  TIP3      4400            0.0000000000
     38100      4600  TIP3      H2              0.9465024167        6.0359234934       39.3542830060  TIP3      4400            0.0000000000
     38101      4601  TIP3      OH2            15.1811712900       16.4900996114       49.5977040706  TIP3      4401            0.0000000000
     38102      4601  TIP3      H1             15.3897998533       17.2865093979       49.0633721774  TIP3      4401            0.0000000000
     38103      4601  TIP3      H2             15.9764822199       16.3671141544       50.1264019395  TIP3      4401            0.0000000000
     38104      4602  TIP3      OH2             2.7765258295        0.6173170501       47.8895760456  TIP3      4402            0.0000000000
     38105      4602  TIP3      H1              2.5881092408        0.2709247178       46.9804785312  TIP3      4402            0.0000000000
     38106      4602  TIP3      H2              2.5900165342       -0.1918757143       48.4034154516  TIP3      4402            0.0000000000
     38107      4603  TIP3      OH2             1.3482718788       14.1412010261       44.4943577655  TIP3      4403            0.0000000000
     38108      4603  TIP3      H1              0.5528959768       14.6577424413       44.6996149273  TIP3      4403            0.0000000000
     38109      4603  TIP3      H2              1.6138689758       14.6062393119       43.6833036588  TIP3      4403            0.0000000000
     38110      4604  TIP3      OH2             9.7516129870       15.6537984525       38.7684536947  TIP3      4404            0.0000000000
     38111      4604  TIP3      H1              9.1822359519       14.8812543812       38.9769327069  TIP3      4404            0.0000000000
     38112      4604  TIP3      H2             10.5498274397       15.2241706934       38.3916477166  TIP3      4404            0.0000000000
     38113      4605  TIP3      OH2            14.1551279471       14.9965741324       39.0188731934  TIP3      4405            0.0000000000
     38114      4605  TIP3      H1             14.3371728494       14.2946102488       39.6772343891  TIP3      4405            0.0000000000
     38115      4605  TIP3      H2             14.9479029222       14.9546626861       38.4611232799  TIP3      4405            0.0000000000
     38116      4606  TIP3      OH2             5.0808852385       10.9424434776       38.7585864998  TIP3      4406            0.0000000000
     38117      4606  TIP3      H1              5.5414927068       10.8379930155       39.6138722118  TIP3      4406            0.0000000000
     38118      4606  TIP3      H2              5.8128954993       10.6795531998       38.1501280349  TIP3      4406            0.0000000000
     38119      4607  TIP3      OH2            10.6559595323       12.2927235962       38.5967486242  TIP3      4407            0.0000000000
     38120      4607  TIP3      H1             10.3037490435       12.1645649320       39.4974609859  TIP3      4407            0.0000000000
     38121      4607  TIP3      H2             10.7128633185       11.3522459164       38.2980467833  TIP3      4407            0.0000000000
     38122      4608  TIP3      OH2             6.2520938686        9.2156197699       41.4345519682  TIP3      4408            0.0000000000
     38123      4608  TIP3      H1              5.5978267910        8.6060011186       41.8186004755  TIP3      4408            0.0000000000
     38124      4608  TIP3      H2              6.6608950980        8.6358098174       40.7635589820  TIP3      4408            0.0000000000
     38125      4609  TIP3      OH2             7.4708889312        7.4089738134       39.3903969829  TIP3      4409            0.0000000000
     38126      4609  TIP3      H1              7.3755265150        7.6364505975       38.4453682459  TIP3      4409            0.0000000000
     38127      4609  TIP3      H2              8.4471735023        7.4407690635       39.4888263222  TIP3      4409            0.0000000000
     38128      4610  TIP3      OH2            16.6961865619        9.5563615575       38.8892829283  TIP3      4410            0.0000000000
     38129      4610  TIP3      H1             16.4668781832        9.2593008034       37.9911942963  TIP3      4410            0.0000000000
     38130      4610  TIP3      H2             16.6085095647       10.5443196978       38.8000515824  TIP3      4410            0.0000000000
     38131      4611  TIP3      OH2             7.0726981593       17.8147049158       40.7418467909  TIP3      4411            0.0000000000
     38132      4611  TIP3      H1              8.0338784654       17.8251017726       40.8833428007  TIP3      4411            0.0000000000
     38133      4611  TIP3      H2              7.0206950010       18.3604653792       39.9379080083  TIP3      4411            0.0000000000
     38134      4612  TIP3      OH2             0.6950944969       12.5682889632       40.2292442703  TIP3      4412            0.0000000000
     38135      4612  TIP3      H1              1.6771749319       12.5818055545       40.1721454724  TIP3      4412            0.0000000000
     38136      4612  TIP3      H2              0.4325969614       12.0468578507       39.4330908814  TIP3      4412            0.0000000000
     38137      4613  TIP3      OH2            -0.4306687683       17.6808080781       44.7927982875  TIP3      4413            0.0000000000
     38138      4613  TIP3      H1             -1.2327164908       17.1645819391       44.5696292538  TIP3      4413            0.0000000000
     38139      4613  TIP3      H2             -0.1261444429       17.1792530542       45.5791640222  TIP3      4413            0.0000000000
     38140      4614  TIP3      OH2             0.4797855021       16.0200458264       46.6917461484  TIP3      4414            0.0000000000
     38141      4614  TIP3      H1              0.1479616435       15.2020952222       47.1210893406  TIP3      4414            0.0000000000
     38142      4614  TIP3      H2              0.9690548010       16.4451019062       47.4302601621  TIP3      4414            0.0000000000
     38143      4615  TIP3      OH2            17.0286019047       10.4984512557       42.4749463515  TIP3      4415            0.0000000000
     38144      4615  TIP3      H1             17.8836074575       10.9301008171       42.6918135250  TIP3      4415            0.0000000000
     38145      4615  TIP3      H2             16.9599508639        9.8525545269       43.2067207229  TIP3      4415            0.0000000000
     38146      4616  TIP3      OH2            17.3291128574        8.7531286748       44.8016714164  TIP3      4416            0.0000000000
     38147      4616  TIP3      H1             16.6979709363        8.1231045773       45.2023386787  TIP3      4416            0.0000000000
     38148      4616  TIP3      H2             18.0341420026        8.7878191367       45.4721641601  TIP3      4416            0.0000000000
     38149      4617  TIP3      OH2            17.6656536351       11.4842030122       49.3527799932  TIP3      4417            0.0000000000
     38150      4617  TIP3      H1             18.4434936863       10.9641220682       49.0498847572  TIP3      4417            0.0000000000
     38151      4617  TIP3      H2             17.5768648247       12.2063963363       48.7196145003  TIP3      4417            0.0000000000
     38152      4618  TIP3      OH2            18.0392842731        8.3541811996       40.8960883761  TIP3      4418            0.0000000000
     38153      4618  TIP3      H1             17.4451436846        8.5423288034       40.1305293693  TIP3      4418            0.0000000000
     38154      4618  TIP3      H2             17.7708165114        9.0873951708       41.4793832723  TIP3      4418            0.0000000000
     38155      4619  TIP3      OH2            15.9618704769        5.5016977697       39.3983113537  TIP3      4419            0.0000000000
     38156      4619  TIP3      H1             16.3100720731        6.1457727293       38.7525047549  TIP3      4419            0.0000000000
     38157      4619  TIP3      H2             15.7016500483        4.7925231003       38.7804092825  TIP3      4419            0.0000000000
     38158      4620  TIP3      OH2            15.6835333250        6.6041158148       45.4011099051  TIP3      4420            0.0000000000
     38159      4620  TIP3      H1             15.1363943261        5.8833204035       45.0371818272  TIP3      4420            0.0000000000
     38160      4620  TIP3      H2             15.1815801904        6.7854479846       46.2337018735  TIP3      4420            0.0000000000
     38161      4621  TIP3      OH2             0.2092902638        9.2864964733       49.1207431488  TIP3      4421            0.0000000000
     38162      4621  TIP3      H1              0.5187187942        8.9970807034       48.2441816239  TIP3      4421            0.0000000000
     38163      4621  TIP3      H2              0.9851073210        9.0810305892       49.6801238988  TIP3      4421            0.0000000000
     38164      4622  TIP3      OH2            15.3628540561        2.8322694869       38.5186607258  TIP3      4422            0.0000000000
     38165      4622  TIP3      H1             15.5892820223        2.6336656535       39.4333416712  TIP3      4422            0.0000000000
     38166      4622  TIP3      H2             14.3923687986        2.7184756880       38.5227832396  TIP3      4422            0.0000000000
     38167      4623  TIP3      OH2            14.5014811328        4.7538619753       43.8351468833  TIP3      4423            0.0000000000
     38168      4623  TIP3      H1             14.8577673640        3.8504022414       44.0163673675  TIP3      4423            0.0000000000
     38169      4623  TIP3      H2             15.2726292794        5.1124057362       43.3612072472  TIP3      4423            0.0000000000
     38170      4624  TIP3      OH2            15.7028036196        5.4289274213       48.8224703569  TIP3      4424            0.0000000000
     38171      4624  TIP3      H1             16.6736470463        5.3405720568       48.8950327865  TIP3      4424            0.0000000000
     38172      4624  TIP3      H2             15.4563827239        4.5143273403       49.1030219473  TIP3      4424            0.0000000000
     38173      4625  TIP3      OH2            15.5291708980        2.1475524925       43.8129017798  TIP3      4425            0.0000000000
     38174      4625  TIP3      H1             15.8668749272        1.6966849786       44.6161562665  TIP3      4425            0.0000000000
     38175      4625  TIP3      H2             14.9783868253        1.4440365753       43.4262365511  TIP3      4425            0.0000000000
     38176      4626  TIP3      OH2             1.0705418500        2.7577377539       48.6923953570  TIP3      4426            0.0000000000
     38177      4626  TIP3      H1              1.4929266636        1.9060460606       48.4389459387  TIP3      4426            0.0000000000
     38178      4626  TIP3      H2              1.8064732387        3.2168339095       49.1425824619  TIP3      4426            0.0000000000
     38179      4627  TIP3      OH2            -0.4849609665        5.5360758346       49.7380947067  TIP3      4427            0.0000000000
     38180      4627  TIP3      H1             -0.1169747335        5.0464758543       48.9810294973  TIP3      4427            0.0000000000
     38181      4627  TIP3      H2             -0.0773794661        6.4034907181       49.6130903552  TIP3      4427            0.0000000000
     38182      4628  TIP3      OH2            17.7350767665        1.6652331345       40.5398508245  TIP3      4428            0.0000000000
     38183      4628  TIP3      H1             17.8097795188        1.0649887658       39.7633426152  TIP3      4428            0.0000000000
     38184      4628  TIP3      H2             17.7475566303        2.5171510362       40.0764970920  TIP3      4428            0.0000000000
     38185      4629  TIP3      OH2            -0.3817548639        1.8589876971       43.2678570074  TIP3      4429            0.0000000000
     38186      4629  TIP3      H1             -1.2696547376        2.2175279528       43.4046418857  TIP3      4429            0.0000000000
     38187      4629  TIP3      H2             -0.0226813641        2.5175088478       42.6417787385  TIP3      4429            0.0000000000
     38188      4630  TIP3      OH2            14.5359573410       17.0205801120       45.5676664726  TIP3      4430            0.0000000000
     38189      4630  TIP3      H1             15.2784497744       16.7059169982       45.0176974427  TIP3      4430            0.0000000000
     38190      4630  TIP3      H2             14.9717457164       17.5630420651       46.2415767548  TIP3      4430            0.0000000000
     38191      4631  TIP3      OH2             1.9988245360       16.9797124666       48.9381905647  TIP3      4431            0.0000000000
     38192      4631  TIP3      H1              2.2494599462       17.0691868349       49.8866788109  TIP3      4431            0.0000000000
     38193      4631  TIP3      H2              2.7647336920       16.4697784202       48.5927151956  TIP3      4431            0.0000000000
     38194      4632  TIP3      OH2             3.8816562265       15.5020648853       47.7625733370  TIP3      4432            0.0000000000
     38195      4632  TIP3      H1              3.8394567220       14.5376785327       47.8726413224  TIP3      4432            0.0000000000
     38196      4632  TIP3      H2              4.7486811705       15.6733939255       48.1883483798  TIP3      4432            0.0000000000
     38197      4633  TIP3      OH2             6.3504865774       15.9616580057       48.8790946698  TIP3      4433            0.0000000000
     38198      4633  TIP3      H1              6.6871962329       15.0712080857       48.6616558382  TIP3      4433            0.0000000000
     38199      4633  TIP3      H2              6.3362060358       15.9214587986       49.8446534689  TIP3      4433            0.0000000000
     38200      4634  TIP3      OH2             9.8624953676        1.9148312073       48.0051685092  TIP3      4434            0.0000000000
     38201      4634  TIP3      H1              9.1883976367        1.2207467599       48.1483054107  TIP3      4434            0.0000000000
     38202      4634  TIP3      H2             10.6380811479        1.3420125604       48.0102530833  TIP3      4434            0.0000000000
     38203      4635  TIP3      OH2            15.4336726265       -0.1053043958       47.8058012493  TIP3      4435            0.0000000000
     38204      4635  TIP3      H1             15.9741571790        0.2509930149       47.0605673283  TIP3      4435            0.0000000000
     38205      4635  TIP3      H2             14.5588786908        0.2906878627       47.6209692578  TIP3      4435            0.0000000000
     38206      4636  TIP3      OH2            16.8417876635        0.7127195610       45.7613202571  TIP3      4436            0.0000000000
     38207      4636  TIP3      H1             17.5807511022        0.1630865693       45.4159271721  TIP3      4436            0.0000000000
     38208      4636  TIP3      H2             17.3104136053        1.5462062275       46.0243707127  TIP3      4436            0.0000000000
     38209      4637  TIP3      OH2             2.1754665766       -0.1943957671       45.4516990590  TIP3      4437            0.0000000000
     38210      4637  TIP3      H1              1.3891574855       -0.2819735582       44.8761750826  TIP3      4437            0.0000000000
     38211      4637  TIP3      H2              2.5732867795       -1.0916454567       45.3512801501  TIP3      4437            0.0000000000
     38212      4638  TIP3      OH2             1.2609513146       -0.0396739255       41.6497425718  TIP3      4438            0.0000000000
     38213      4638  TIP3      H1              1.4936471138        0.5973042106       40.9532153832  TIP3      4438            0.0000000000
     38214      4638  TIP3      H2              0.6272916101        0.4634213349       42.2003339885  TIP3      4438            0.0000000000
     38215      4639  TIP3      OH2             6.6352434466       -0.2731604215       45.6759528298  TIP3      4439            0.0000000000
     38216      4639  TIP3      H1              7.4632357606       -0.1582579451       45.1987039311  TIP3      4439            0.0000000000
     38217      4639  TIP3      H2              6.9227903616       -0.0998910541       46.5867349476  TIP3      4439            0.0000000000
     38218      4640  TIP3      OH2            12.7431516258        0.2485768786       46.9381690864  TIP3      4440            0.0000000000
     38219      4640  TIP3      H1             12.5105026110        0.5239459918       46.0461740621  TIP3      4440            0.0000000000
     38220      4640  TIP3      H2             12.1592484133       -0.5128341900       47.1172016530  TIP3      4440            0.0000000000
     38221      4641  TIP3      OH2            13.7192646273        0.1358201009       43.1690182940  TIP3      4441            0.0000000000
     38222      4641  TIP3      H1             13.0302136492        0.3504574482       42.5235189412  TIP3      4441            0.0000000000
     38223      4641  TIP3      H2             13.3933735659       -0.7372553179       43.4754109530  TIP3      4441            0.0000000000
     38224      4642  TIP3      OH2             1.0156288042       15.9387043633       42.4825721832  TIP3      4442            0.0000000000
     38225      4642  TIP3      H1              0.2010900370       15.8287563373       41.9496381444  TIP3      4442            0.0000000000
     38226      4642  TIP3      H2              1.2194903812       16.8718388334       42.2612910343  TIP3      4442            0.0000000000
     38227      4643  TIP3      OH2             2.3613007155        1.9489041784       39.9297415876  TIP3      4443            0.0000000000
     38228      4643  TIP3      H1              3.0213960039        1.4063277409       39.4514570634  TIP3      4443            0.0000000000
     38229      4643  TIP3      H2              2.8264759928        2.1162865217       40.7634848334  TIP3      4443            0.0000000000
     38230      4644  TIP3      OH2             7.8525191486        2.4003230741       42.1654989157  TIP3      4444            0.0000000000
     38231      4644  TIP3      H1              8.1516398882        1.7540672123       42.8211037085  TIP3      4444            0.0000000000
     38232      4644  TIP3      H2              8.1723231505        3.2120381726       42.6071121933  TIP3      4444            0.0000000000
     38233      4645  TIP3      OH2            10.0900414400       17.2684711551       40.8623281615  TIP3      4445            0.0000000000
     38234      4645  TIP3      H1             11.0512857953       17.2656392302       40.6675730413  TIP3      4445            0.0000000000
     38235      4645  TIP3      H2              9.7997312348       16.7619287930       40.0686467240  TIP3      4445            0.0000000000
     38236      4646  TIP3      OH2            16.4617920216       16.3422344932       43.7402307394  TIP3      4446            0.0000000000
     38237      4646  TIP3      H1             16.1452448335       15.6528364767       43.1129768406  TIP3      4446            0.0000000000
     38238      4646  TIP3      H2             16.4863127806       17.1123972404       43.1369384445  TIP3      4446            0.0000000000
     38239      4647  TIP3      OH2             2.2611797491       16.7378104053       39.3825184086  TIP3      4447            0.0000000000
     38240      4647  TIP3      H1              2.0577446533       17.1578198951       40.2393769669  TIP3      4447            0.0000000000
     38241      4647  TIP3      H2              3.0633231124       16.2359249753       39.6146406143  TIP3      4447            0.0000000000
     38242      4648  TIP3      OH2            30.3370602983        9.2289861179       45.4223461506  TIP3      4448            0.0000000000
     38243      4648  TIP3      H1             30.3406902337       10.1081516967       45.8319571848  TIP3      4448            0.0000000000
     38244      4648  TIP3      H2             29.4409148162        9.1575262552       45.0687911105  TIP3      4448            0.0000000000
     38245      4649  TIP3      OH2            29.2455128742        8.4232493897       48.8298760435  TIP3      4449            0.0000000000
     38246      4649  TIP3      H1             29.1952515695        7.9530236568       49.6889551167  TIP3      4449            0.0000000000
     38247      4649  TIP3      H2             28.3810576845        8.2388181147       48.4481681008  TIP3      4449            0.0000000000
     38248      4650  TIP3      OH2            31.8521953673       11.4595682590       47.1421080718  TIP3      4450            0.0000000000
     38249      4650  TIP3      H1             31.7148540768       10.6898357599       47.7425553237  TIP3      4450            0.0000000000
     38250      4650  TIP3      H2             32.4266510450       11.9573161700       47.7743077956  TIP3      4450            0.0000000000
     38251      4651  TIP3      OH2            22.6469089257       12.8041622309       48.8731178028  TIP3      4451            0.0000000000
     38252      4651  TIP3      H1             22.5399510452       11.8725102240       48.6066387978  TIP3      4451            0.0000000000
     38253      4651  TIP3      H2             23.6075767725       12.9459719470       48.7127102024  TIP3      4451            0.0000000000
     38254      4652  TIP3      OH2            19.1757878590        5.9249057153       44.4825616636  TIP3      4452            0.0000000000
     38255      4652  TIP3      H1             18.8587073897        6.8140512278       44.7221061661  TIP3      4452            0.0000000000
     38256      4652  TIP3      H2             18.3229132953        5.4872116614       44.3245734951  TIP3      4452            0.0000000000
     38257      4653  TIP3      OH2            19.7649428454        8.4462794612       46.5918518938  TIP3      4453            0.0000000000
     38258      4653  TIP3      H1             20.2323602680        7.8199530085       47.1663947522  TIP3      4453            0.0000000000
     38259      4653  TIP3      H2             20.2996705215        9.2592355643       46.6882825749  TIP3      4453            0.0000000000
     38260      4654  TIP3      OH2            29.7228170686       17.0292381634       47.6651979443  TIP3      4454            0.0000000000
     38261      4654  TIP3      H1             30.4160669955       16.5277538082       47.1693380893  TIP3      4454            0.0000000000
     38262      4654  TIP3      H2             29.3758433424       16.3099426768       48.2133511930  TIP3      4454            0.0000000000
     38263      4655  TIP3      OH2            27.8614815067       10.9955576622       50.0852362869  TIP3      4455            0.0000000000
     38264      4655  TIP3      H1             28.4086669057       10.4905221721       49.4586667391  TIP3      4455            0.0000000000
     38265      4655  TIP3      H2             28.3525012606       10.8609895052       50.9069150348  TIP3      4455            0.0000000000
     38266      4656  TIP3      OH2            30.5523310280        5.3934760464       49.9568352944  TIP3      4456            0.0000000000
     38267      4656  TIP3      H1             30.6884228599        4.4343458627       50.0504023809  TIP3      4456            0.0000000000
     38268      4656  TIP3      H2             30.8434757412        5.5248369261       49.0404187027  TIP3      4456            0.0000000000
     38269      4657  TIP3      OH2            23.9582194556        3.4964129832       47.0384916458  TIP3      4457            0.0000000000
     38270      4657  TIP3      H1             24.2921294066        4.2898989030       46.5788663453  TIP3      4457            0.0000000000
     38271      4657  TIP3      H2             23.5256564061        3.0133184851       46.3071644249  TIP3      4457            0.0000000000
     38272      4658  TIP3      OH2            31.2498746335        3.5790722438       45.3472102799  TIP3      4458            0.0000000000
     38273      4658  TIP3      H1             31.6829574605        3.1197511699       46.1066540743  TIP3      4458            0.0000000000
     38274      4658  TIP3      H2             31.9883767643        4.1601674577       45.0989874263  TIP3      4458            0.0000000000
     38275      4659  TIP3      OH2            20.2743867010        5.7996418629       47.7813922799  TIP3      4459            0.0000000000
     38276      4659  TIP3      H1             20.8991935287        5.3008854199       48.3500143835  TIP3      4459            0.0000000000
     38277      4659  TIP3      H2             20.4448069080        5.4022622235       46.9070465342  TIP3      4459            0.0000000000
     38278      4660  TIP3      OH2            25.6577157193        7.5608086564       47.1488603480  TIP3      4460            0.0000000000
     38279      4660  TIP3      H1             26.2702742214        6.9839800271       47.6457508655  TIP3      4460            0.0000000000
     38280      4660  TIP3      H2             25.2430430646        6.8676706913       46.5901144035  TIP3      4460            0.0000000000
     38281      4661  TIP3      OH2            30.0837596420       11.7351679574       44.5508060291  TIP3      4461            0.0000000000
     38282      4661  TIP3      H1             30.7919007653       11.2518196266       44.0914975675  TIP3      4461            0.0000000000
     38283      4661  TIP3      H2             30.6369909149       12.2155189382       45.2024212686  TIP3      4461            0.0000000000
     38284      4662  TIP3      OH2            32.9511211266        2.9823783768       47.2815373159  TIP3      4462            0.0000000000
     38285      4662  TIP3      H1             32.3929911649        2.8375670875       48.0806383152  TIP3      4462            0.0000000000
     38286      4662  TIP3      H2             33.8583601278        2.9524560912       47.6041615656  TIP3      4462            0.0000000000
     38287      4663  TIP3      OH2            22.2666503122        4.3570137997       48.9005521082  TIP3      4463            0.0000000000
     38288      4663  TIP3      H1             22.7045539359        5.2246980273       48.9330507139  TIP3      4463            0.0000000000
     38289      4663  TIP3      H2             22.8023726383        3.9013164502       48.2122464616  TIP3      4463            0.0000000000
     38290      4664  TIP3      OH2            19.6332391994       11.5012751206       42.7363220584  TIP3      4464            0.0000000000
     38291      4664  TIP3      H1             19.5828430618       12.0937202138       41.9636958252  TIP3      4464            0.0000000000
     38292      4664  TIP3      H2             19.8187237154       12.1451079493       43.4396168108  TIP3      4464            0.0000000000
     38293      4665  TIP3      OH2            33.5227206162       12.6415103827       49.0246627293  TIP3      4465            0.0000000000
     38294      4665  TIP3      H1             33.1884062347       12.2468537096       49.8543694730  TIP3      4465            0.0000000000
     38295      4665  TIP3      H2             33.6122229360       13.5694058348       49.2775877051  TIP3      4465            0.0000000000
     38296      4666  TIP3      OH2            26.6208729118       -0.0620897821       47.9616845127  TIP3      4466            0.0000000000
     38297      4666  TIP3      H1             26.8073057889       -0.9896732819       48.1613756123  TIP3      4466            0.0000000000
     38298      4666  TIP3      H2             25.7430864634        0.0986685758       48.3771415404  TIP3      4466            0.0000000000
     38299      4667  TIP3      OH2            31.2839710621       15.3755890615       46.2687579872  TIP3      4467            0.0000000000
     38300      4667  TIP3      H1             31.6465693195       14.5262915840       45.9531166427  TIP3      4467            0.0000000000
     38301      4667  TIP3      H2             32.0348223126       15.9833829292       46.0469134653  TIP3      4467            0.0000000000
     38302      4668  TIP3      OH2            32.5785349957       13.0708744182       44.9016544966  TIP3      4468            0.0000000000
     38303      4668  TIP3      H1             32.8593343122       12.4758727990       44.1849551523  TIP3      4468            0.0000000000
     38304      4668  TIP3      H2             32.8222065069       12.5767840731       45.7078218797  TIP3      4468            0.0000000000
     38305      4669  TIP3      OH2            28.7420749643        8.6311250081       42.8526852246  TIP3      4469            0.0000000000
     38306      4669  TIP3      H1             28.3097108254        9.4482150934       42.5648527547  TIP3      4469            0.0000000000
     38307      4669  TIP3      H2             29.6328378218        8.6775059613       42.4414493054  TIP3      4469            0.0000000000
     38308      4670  TIP3      OH2            29.0359933519        7.4496301685       39.8264993427  TIP3      4470            0.0000000000
     38309      4670  TIP3      H1             29.5851993991        7.8581000238       40.5238397088  TIP3      4470            0.0000000000
     38310      4670  TIP3      H2             29.2112285860        6.5163949413       40.0127344464  TIP3      4470            0.0000000000
     38311      4671  TIP3      OH2            32.4844544769        8.9344940934       43.8100653115  TIP3      4471            0.0000000000
     38312      4671  TIP3      H1             31.7523497250        8.9421911925       44.4782166825  TIP3      4471            0.0000000000
     38313      4671  TIP3      H2             33.1275142264        8.3705418458       44.2803129844  TIP3      4471            0.0000000000
     38314      4672  TIP3      OH2            24.2462338128        9.3349582050       45.6504563651  TIP3      4472            0.0000000000
     38315      4672  TIP3      H1             23.6638897007        8.8266913564       45.0536335720  TIP3      4472            0.0000000000
     38316      4672  TIP3      H2             24.7802942423        8.6630180584       46.1261711084  TIP3      4472            0.0000000000
     38317      4673  TIP3      OH2            25.3208827230       13.0563661318       48.5114054981  TIP3      4473            0.0000000000
     38318      4673  TIP3      H1             25.3870677550       12.7923202993       47.5818686229  TIP3      4473            0.0000000000
     38319      4673  TIP3      H2             25.9205764582       12.4506885894       48.9670460465  TIP3      4473            0.0000000000
     38320      4674  TIP3      OH2            24.0165853276        7.2962454128       49.3809241961  TIP3      4474            0.0000000000
     38321      4674  TIP3      H1             24.4644410997        7.5677488375       48.5537110420  TIP3      4474            0.0000000000
     38322      4674  TIP3      H2             24.1342543652        8.0942843105       49.9269397088  TIP3      4474            0.0000000000
     38323      4675  TIP3      OH2            31.0656905341        8.2458052233       41.6739888758  TIP3      4475            0.0000000000
     38324      4675  TIP3      H1             31.6524064511        8.4574230197       42.4359234205  TIP3      4475            0.0000000000
     38325      4675  TIP3      H2             31.6423647932        8.5309243707       40.9171421425  TIP3      4475            0.0000000000
     38326      4676  TIP3      OH2            28.7120362297       14.2296795840       45.0610276439  TIP3      4476            0.0000000000
     38327      4676  TIP3      H1             29.1088817295       14.4340537923       45.9224677842  TIP3      4476            0.0000000000
     38328      4676  TIP3      H2             28.5018183880       15.1267541919       44.7509410898  TIP3      4476            0.0000000000
     38329      4677  TIP3      OH2            34.8245866430       -0.4890050519       41.5900111034  TIP3      4477            0.0000000000
     38330      4677  TIP3      H1             33.8817465398       -0.3219092654       41.7926078194  TIP3      4477            0.0000000000
     38331      4677  TIP3      H2             35.2145267726        0.4022706236       41.6450419245  TIP3      4477            0.0000000000
     38332      4678  TIP3      OH2            22.4322271128        8.1571769909       43.6872047956  TIP3      4478            0.0000000000
     38333      4678  TIP3      H1             22.3494705934        8.9875473784       43.1779246424  TIP3      4478            0.0000000000
     38334      4678  TIP3      H2             22.3458998727        7.4874684852       43.0004509774  TIP3      4478            0.0000000000
     38335      4679  TIP3      OH2            35.9804770912       14.2945652745       39.8559449040  TIP3      4479            0.0000000000
     38336      4679  TIP3      H1             36.3196260837       15.2172451487       39.7989373638  TIP3      4479            0.0000000000
     38337      4679  TIP3      H2             36.8399032189       13.8567645120       39.9890799497  TIP3      4479            0.0000000000
     38338      4680  TIP3      OH2            18.8500904131       14.0377408430       48.5272752117  TIP3      4480            0.0000000000
     38339      4680  TIP3      H1             19.6750988246       13.6557777763       48.8544826745  TIP3      4480            0.0000000000
     38340      4680  TIP3      H2             18.4215504065       14.4413853884       49.2989791601  TIP3      4480            0.0000000000
     38341      4681  TIP3      OH2            28.6757859242       17.4179406249       43.6662544888  TIP3      4481            0.0000000000
     38342      4681  TIP3      H1             28.5773972215       17.3620307605       42.6845149986  TIP3      4481            0.0000000000
     38343      4681  TIP3      H2             28.4177655638       18.3588039556       43.8143502653  TIP3      4481            0.0000000000
     38344      4682  TIP3      OH2            22.1074569967       16.2279271751       45.3615914724  TIP3      4482            0.0000000000
     38345      4682  TIP3      H1             22.4053608537       16.0768001148       46.2908723238  TIP3      4482            0.0000000000
     38346      4682  TIP3      H2             21.2636539371       15.7263454239       45.3494109461  TIP3      4482            0.0000000000
     38347      4683  TIP3      OH2            31.5543514192       16.8095879123       40.4537805530  TIP3      4483            0.0000000000
     38348      4683  TIP3      H1             32.0209045105       16.0231535666       40.0695811795  TIP3      4483            0.0000000000
     38349      4683  TIP3      H2             31.6373889768       16.6749965043       41.4191779985  TIP3      4483            0.0000000000
     38350      4684  TIP3      OH2            31.2156797865       16.7092124797       43.2070052315  TIP3      4484            0.0000000000
     38351      4684  TIP3      H1             30.2756637139       16.9721128870       43.3540835346  TIP3      4484            0.0000000000
     38352      4684  TIP3      H2             31.2804738046       15.9640655969       43.8048753579  TIP3      4484            0.0000000000
     38353      4685  TIP3      OH2            24.0585314129        0.7114265438       48.9127978599  TIP3      4485            0.0000000000
     38354      4685  TIP3      H1             23.2596517576        0.6345092032       48.3588068306  TIP3      4485            0.0000000000
     38355      4685  TIP3      H2             23.9343620022        1.6141194327       49.2433441335  TIP3      4485            0.0000000000
     38356      4686  TIP3      OH2            32.7339576056        9.2543670337       39.9131173309  TIP3      4486            0.0000000000
     38357      4686  TIP3      H1             32.4946283618        9.4218738465       38.9792025415  TIP3      4486            0.0000000000
     38358      4686  TIP3      H2             33.6920850008        9.4399736245       39.8707500106  TIP3      4486            0.0000000000
     38359      4687  TIP3      OH2            28.4162251517        3.0197883960       39.9029963044  TIP3      4487            0.0000000000
     38360      4687  TIP3      H1             28.1801418977        2.7070853496       40.7932822443  TIP3      4487            0.0000000000
     38361      4687  TIP3      H2             27.8281385455        2.4212691629       39.4096308546  TIP3      4487            0.0000000000
     38362      4688  TIP3      OH2            24.2482487521        5.8356376048       45.6817664727  TIP3      4488            0.0000000000
     38363      4688  TIP3      H1             23.6722341942        6.5822296017       45.4386383246  TIP3      4488            0.0000000000
     38364      4688  TIP3      H2             24.5240632307        5.5187769025       44.7781096319  TIP3      4488            0.0000000000
     38365      4689  TIP3      OH2            29.7288536180        6.5454960042       44.1391351545  TIP3      4489            0.0000000000
     38366      4689  TIP3      H1             29.2954734409        7.2412286888       43.5896024644  TIP3      4489            0.0000000000
     38367      4689  TIP3      H2             30.3550689416        6.1729314353       43.4921732673  TIP3      4489            0.0000000000
     38368      4690  TIP3      OH2            30.4729158256        5.8469092409       47.1354138447  TIP3      4490            0.0000000000
     38369      4690  TIP3      H1             30.2248132178        6.5124612307       46.4624891765  TIP3      4490            0.0000000000
     38370      4690  TIP3      H2             30.5228920344        5.0566529561       46.5678945673  TIP3      4490            0.0000000000
     38371      4691  TIP3      OH2            24.7197982230        3.0981655851       38.9102052963  TIP3      4491            0.0000000000
     38372      4691  TIP3      H1             24.3206308584        2.6934930794       39.7057630239  TIP3      4491            0.0000000000
     38373      4691  TIP3      H2             24.0513822849        3.7510065860       38.6477088926  TIP3      4491            0.0000000000
     38374      4692  TIP3      OH2            18.1868156189        2.8007430094       46.5043794460  TIP3      4492            0.0000000000
     38375      4692  TIP3      H1             18.7783056671        3.0033491084       47.2674973231  TIP3      4492            0.0000000000
     38376      4692  TIP3      H2             18.8284371290        2.6932025154       45.8025353441  TIP3      4492            0.0000000000
     38377      4693  TIP3      OH2            20.1201411587        4.0319968879       41.9820489572  TIP3      4493            0.0000000000
     38378      4693  TIP3      H1             20.3352051240        4.2112087030       41.0333338553  TIP3      4493            0.0000000000
     38379      4693  TIP3      H2             19.1925033076        4.3597330948       41.9854610711  TIP3      4493            0.0000000000
     38380      4694  TIP3      OH2            27.2317755174        3.3689661521       46.2967100282  TIP3      4494            0.0000000000
     38381      4694  TIP3      H1             26.5592742941        3.4521102520       46.9936485921  TIP3      4494            0.0000000000
     38382      4694  TIP3      H2             27.8967254091        2.8287738672       46.7819938584  TIP3      4494            0.0000000000
     38383      4695  TIP3      OH2            21.2947267905        4.4699782941       45.3501302378  TIP3      4495            0.0000000000
     38384      4695  TIP3      H1             20.7295472295        5.2169695303       45.0334734418  TIP3      4495            0.0000000000
     38385      4695  TIP3      H2             22.1936730240        4.7706438400       45.1381948833  TIP3      4495            0.0000000000
     38386      4696  TIP3      OH2            24.8088681715        5.2125933170       43.1361241372  TIP3      4496            0.0000000000
     38387      4696  TIP3      H1             25.7286271137        4.9412896082       42.9875692458  TIP3      4496            0.0000000000
     38388      4696  TIP3      H2             24.6306143667        5.7992796556       42.3828952930  TIP3      4496            0.0000000000
     38389      4697  TIP3      OH2            31.1293487579        2.7341210053       49.2000732421  TIP3      4497            0.0000000000
     38390      4697  TIP3      H1             30.9425413993        2.4812964342       50.1141914623  TIP3      4497            0.0000000000
     38391      4697  TIP3      H2             30.2184828763        2.7249892180       48.8353676253  TIP3      4497            0.0000000000
     38392      4698  TIP3      OH2            23.6985067175        6.2225635335       40.3056411218  TIP3      4498            0.0000000000
     38393      4698  TIP3      H1             23.4425954818        5.7766546007       39.4746191867  TIP3      4498            0.0000000000
     38394      4698  TIP3      H2             24.5856395537        6.5160091265       40.0145210183  TIP3      4498            0.0000000000
     38395      4699  TIP3      OH2            27.6494049418        5.9435965578       48.3532967678  TIP3      4499            0.0000000000
     38396      4699  TIP3      H1             28.2510092864        5.8805145835       47.5878781604  TIP3      4499            0.0000000000
     38397      4699  TIP3      H2             28.1480754856        5.4391031200       49.0117236858  TIP3      4499            0.0000000000
     38398      4700  TIP3      OH2            22.6675580816        1.9549825464       44.8971878090  TIP3      4500            0.0000000000
     38399      4700  TIP3      H1             22.2211336199        1.2104910998       45.3796681403  TIP3      4500            0.0000000000
     38400      4700  TIP3      H2             23.4137373838        1.4891528995       44.4759051207  TIP3      4500            0.0000000000
     38401      4701  TIP3      OH2            26.9353649284       10.8589354230       42.5872016119  TIP3      4501            0.0000000000
     38402      4701  TIP3      H1             26.3017644478       10.2639284626       42.1049075251  TIP3      4501            0.0000000000
     38403      4701  TIP3      H2             26.4235436100       10.9944221269       43.4189781705  TIP3      4501            0.0000000000
     38404      4702  TIP3      OH2            30.8069219971        3.3969713958       40.9067212156  TIP3      4502            0.0000000000
     38405      4702  TIP3      H1             29.9168089220        3.5507126725       40.5130398422  TIP3      4502            0.0000000000
     38406      4702  TIP3      H2             31.0981433152        4.3148561042       41.0934866430  TIP3      4502            0.0000000000
     38407      4703  TIP3      OH2            31.7015542813        5.6102530146       42.1547914974  TIP3      4503            0.0000000000
     38408      4703  TIP3      H1             32.4807522069        5.4882922590       42.7393490711  TIP3      4503            0.0000000000
     38409      4703  TIP3      H2             31.9091783862        6.4120294541       41.6519269999  TIP3      4503            0.0000000000
     38410      4704  TIP3      OH2            22.0297710082       10.1171163715       48.0732804822  TIP3      4504            0.0000000000
     38411      4704  TIP3      H1             22.6084800833       10.3593082441       47.3420880770  TIP3      4504            0.0000000000
     38412      4704  TIP3      H2             22.6458316749        9.7870312444       48.7466182779  TIP3      4504            0.0000000000
     38413      4705  TIP3      OH2            29.1537772570       12.0817470979       41.6376410772  TIP3      4505            0.0000000000
     38414      4705  TIP3      H1             28.7436427836       12.8612594174       41.2199911788  TIP3      4505            0.0000000000
     38415      4705  TIP3      H2             28.4561696129       11.4066959838       41.5679940815  TIP3      4505            0.0000000000
     38416      4706  TIP3      OH2            36.0503929965        5.3621592213       42.1135575888  TIP3      4506            0.0000000000
     38417      4706  TIP3      H1             35.6152342737        5.2203285215       41.2462900481  TIP3      4506            0.0000000000
     38418      4706  TIP3      H2             36.6360739680        6.1125483911       41.9053873661  TIP3      4506            0.0000000000
     38419      4707  TIP3      OH2            34.6699031354       14.3767774854       42.2984460584  TIP3      4507            0.0000000000
     38420      4707  TIP3      H1             34.1780102812       13.5556117114       42.3704962230  TIP3      4507            0.0000000000
     38421      4707  TIP3      H2             35.1312536748       14.3078194111       41.4343067487  TIP3      4507            0.0000000000
     38422      4708  TIP3      OH2            31.6571188451        9.5385230805       48.9633736605  TIP3      4508            0.0000000000
     38423      4708  TIP3      H1             30.7642930623        9.1849201689       48.7325518148  TIP3      4508            0.0000000000
     38424      4708  TIP3      H2             32.2374814370        8.9060940199       48.4781345713  TIP3      4508            0.0000000000
     38425      4709  TIP3      OH2            24.4503314334       13.7332670573       45.5946865428  TIP3      4509            0.0000000000
     38426      4709  TIP3      H1             24.6707707965       14.5698701730       45.1310055836  TIP3      4509            0.0000000000
     38427      4709  TIP3      H2             23.5025109839       13.7203980050       45.4079761357  TIP3      4509            0.0000000000
     38428      4710  TIP3      OH2            20.8405896037        8.7961468320       40.2400623266  TIP3      4510            0.0000000000
     38429      4710  TIP3      H1             21.2471326214        9.2735028155       40.9874098823  TIP3      4510            0.0000000000
     38430      4710  TIP3      H2             19.8789552096        8.7816386558       40.4582540077  TIP3      4510            0.0000000000
     38431      4711  TIP3      OH2            25.9714086764       11.5594331240       44.9870864397  TIP3      4511            0.0000000000
     38432      4711  TIP3      H1             25.3663267155       12.2999396566       45.2276259252  TIP3      4511            0.0000000000
     38433      4711  TIP3      H2             25.5824784598       10.8317507007       45.5168982454  TIP3      4511            0.0000000000
     38434      4712  TIP3      OH2            24.6771113916       16.2738200437       44.4298090528  TIP3      4512            0.0000000000
     38435      4712  TIP3      H1             23.7070062295       16.3901055942       44.5490824615  TIP3      4512            0.0000000000
     38436      4712  TIP3      H2             24.9753961071       17.0737256914       44.9180756471  TIP3      4512            0.0000000000
     38437      4713  TIP3      OH2            32.4944337960       12.5958042975       40.3789408840  TIP3      4513            0.0000000000
     38438      4713  TIP3      H1             32.7812645851       12.0641174547       41.1492198500  TIP3      4513            0.0000000000
     38439      4713  TIP3      H2             31.5533609023       12.3463264291       40.3313764998  TIP3      4513            0.0000000000
     38440      4714  TIP3      OH2            36.9142035642       16.6788008965       40.3603680126  TIP3      4514            0.0000000000
     38441      4714  TIP3      H1             37.2131832692       17.5924652345       40.2000609369  TIP3      4514            0.0000000000
     38442      4714  TIP3      H2             36.0962806188       16.8664413587       40.8378020256  TIP3      4514            0.0000000000
     38443      4715  TIP3      OH2            33.1985124360       11.1396706458       42.5411750981  TIP3      4515            0.0000000000
     38444      4715  TIP3      H1             32.8273127731       10.2567676674       42.7696456762  TIP3      4515            0.0000000000
     38445      4715  TIP3      H2             34.1368855919       10.8759214156       42.4023024100  TIP3      4515            0.0000000000
     38446      4716  TIP3      OH2            26.6605418936       13.3929545948       39.0362628718  TIP3      4516            0.0000000000
     38447      4716  TIP3      H1             26.3866793439       13.1181723722       38.1403015417  TIP3      4516            0.0000000000
     38448      4716  TIP3      H2             25.8334752549       13.2238420638       39.5328692710  TIP3      4516            0.0000000000
     38449      4717  TIP3      OH2            25.0701408055       13.0169768248       41.2656978976  TIP3      4517            0.0000000000
     38450      4717  TIP3      H1             25.8604656633       12.6804432445       41.7056649769  TIP3      4517            0.0000000000
     38451      4717  TIP3      H2             25.1559760751       13.9921284549       41.3967817421  TIP3      4517            0.0000000000
     38452      4718  TIP3      OH2            22.1078990622       10.4250272702       41.9734278570  TIP3      4518            0.0000000000
     38453      4718  TIP3      H1             21.2233463911       10.6745086165       42.3242176835  TIP3      4518            0.0000000000
     38454      4718  TIP3      H2             22.3353822776       11.1960364230       41.4190034094  TIP3      4518            0.0000000000
     38455      4719  TIP3      OH2            30.1287779255        2.3661465911       43.2548827072  TIP3      4519            0.0000000000
     38456      4719  TIP3      H1             30.5483903300        2.7496471288       42.4548013435  TIP3      4519            0.0000000000
     38457      4719  TIP3      H2             30.5658167589        2.8729692937       43.9747935898  TIP3      4519            0.0000000000
     38458      4720  TIP3      OH2            27.7690526124       14.4996560213       42.0667663096  TIP3      4520            0.0000000000
     38459      4720  TIP3      H1             26.9985995178       15.1110110306       42.1201784600  TIP3      4520            0.0000000000
     38460      4720  TIP3      H2             28.4227773191       15.1103395397       41.6806927009  TIP3      4520            0.0000000000
     38461      4721  TIP3      OH2            27.4846788740        4.2163696503       43.7339238532  TIP3      4521            0.0000000000
     38462      4721  TIP3      H1             28.0755659774        4.9835079992       43.8281898006  TIP3      4521            0.0000000000
     38463      4721  TIP3      H2             27.4404999954        3.8591360462       44.6536727495  TIP3      4521            0.0000000000
     38464      4722  TIP3      OH2            28.2042872966        1.0566247924       44.4380277805  TIP3      4522            0.0000000000
     38465      4722  TIP3      H1             27.8981312943        1.7185931943       45.0731568063  TIP3      4522            0.0000000000
     38466      4722  TIP3      H2             28.9389858004        1.5646817466       43.9980452518  TIP3      4522            0.0000000000
     38467      4723  TIP3      OH2            25.4094614505       15.6997739841       41.7279958980  TIP3      4523            0.0000000000
     38468      4723  TIP3      H1             25.4941481668       16.5659628624       41.2816892443  TIP3      4523            0.0000000000
     38469      4723  TIP3      H2             25.0535727100       16.0214581024       42.5812099623  TIP3      4523            0.0000000000
     38470      4724  TIP3      OH2            24.0137666743        2.3462499616       41.6556390408  TIP3      4524            0.0000000000
     38471      4724  TIP3      H1             24.0975841459        3.2055036694       42.0938570912  TIP3      4524            0.0000000000
     38472      4724  TIP3      H2             24.9339761233        2.0231195191       41.7014395197  TIP3      4524            0.0000000000
     38473      4725  TIP3      OH2            32.5232033112        7.5219690628       47.5779793655  TIP3      4525            0.0000000000
     38474      4725  TIP3      H1             31.7606614759        6.9294491045       47.4505665933  TIP3      4525            0.0000000000
     38475      4725  TIP3      H2             33.1177019279        6.9440260828       48.1063458057  TIP3      4525            0.0000000000
     38476      4726  TIP3      OH2            22.2107042081       12.7894076237       40.4493464411  TIP3      4526            0.0000000000
     38477      4726  TIP3      H1             22.8283718077       13.3241613361       40.9799802155  TIP3      4526            0.0000000000
     38478      4726  TIP3      H2             22.8358145110       12.5010178664       39.7580750952  TIP3      4526            0.0000000000
     38479      4727  TIP3      OH2            20.5555481900        5.5034780861       39.7409562038  TIP3      4527            0.0000000000
     38480      4727  TIP3      H1             21.1008919316        6.2673648328       39.9829573788  TIP3      4527            0.0000000000
     38481      4727  TIP3      H2             19.8412171069        5.9329186255       39.2407796598  TIP3      4527            0.0000000000
     38482      4728  TIP3      OH2            34.2742563310       16.3785326814       49.6044468697  TIP3      4528            0.0000000000
     38483      4728  TIP3      H1             34.0942007831       17.2750139621       49.2399963329  TIP3      4528            0.0000000000
     38484      4728  TIP3      H2             35.1287260128       16.5188767630       50.0204617861  TIP3      4528            0.0000000000
     38485      4729  TIP3      OH2            21.5153627507        0.5123053762       47.9192180903  TIP3      4529            0.0000000000
     38486      4729  TIP3      H1             21.1392543033        0.1102250499       47.1107037231  TIP3      4529            0.0000000000
     38487      4729  TIP3      H2             21.4590273503       -0.2602896264       48.5170362841  TIP3      4529            0.0000000000
     38488      4730  TIP3      OH2            20.1730554955       14.0818105489       44.5408580856  TIP3      4530            0.0000000000
     38489      4730  TIP3      H1             19.3959522884       14.6586245984       44.5939177621  TIP3      4530            0.0000000000
     38490      4730  TIP3      H2             20.5696129331       14.4765363896       43.7475487308  TIP3      4530            0.0000000000
     38491      4731  TIP3      OH2            28.6354454744       15.4065030076       39.0543274609  TIP3      4531            0.0000000000
     38492      4731  TIP3      H1             27.9800417653       14.6896090626       38.9471594297  TIP3      4531            0.0000000000
     38493      4731  TIP3      H2             29.3284209827       15.1335649085       38.4138822655  TIP3      4531            0.0000000000
     38494      4732  TIP3      OH2            32.8735033287       14.9517158479       38.9659027709  TIP3      4532            0.0000000000
     38495      4732  TIP3      H1             33.1480359412       14.3113485927       39.6440994393  TIP3      4532            0.0000000000
     38496      4732  TIP3      H2             33.6541175064       14.9774419209       38.3783443080  TIP3      4532            0.0000000000
     38497      4733  TIP3      OH2            23.9629417341       11.0255734497       38.7969203373  TIP3      4533            0.0000000000
     38498      4733  TIP3      H1             24.3211647548       10.8102533615       39.6704963283  TIP3      4533            0.0000000000
     38499      4733  TIP3      H2             24.6974611286       10.7668862637       38.1919704202  TIP3      4533            0.0000000000
     38500      4734  TIP3      OH2            29.4289188452       12.1925259557       38.5396870843  TIP3      4534            0.0000000000
     38501      4734  TIP3      H1             28.6384690088       12.2199423536       39.0955519294  TIP3      4534            0.0000000000
     38502      4734  TIP3      H2             29.4446208806       11.2300453986       38.3171439207  TIP3      4534            0.0000000000
     38503      4735  TIP3      OH2            25.1610047469        9.2196290511       41.3552876453  TIP3      4535            0.0000000000
     38504      4735  TIP3      H1             24.2414111414        8.9227218279       41.4102149984  TIP3      4535            0.0000000000
     38505      4735  TIP3      H2             25.5592044228        8.5699705709       40.7341106919  TIP3      4535            0.0000000000
     38506      4736  TIP3      OH2            26.2368969827        7.4376112545       39.3809689824  TIP3      4536            0.0000000000
     38507      4736  TIP3      H1             26.1825317027        7.8998488910       38.5134132622  TIP3      4536            0.0000000000
     38508      4736  TIP3      H2             27.2139097208        7.3375735538       39.4755416168  TIP3      4536            0.0000000000
     38509      4737  TIP3      OH2            35.3553434779        9.4668561995       38.9380657463  TIP3      4537            0.0000000000
     38510      4737  TIP3      H1             35.1019117241        9.2533421939       38.0126841325  TIP3      4537            0.0000000000
     38511      4737  TIP3      H2             35.3097603724       10.4559805221       38.9374486898  TIP3      4537            0.0000000000
     38512      4738  TIP3      OH2            26.4427265937       18.3263067989       41.7891624269  TIP3      4538            0.0000000000
     38513      4738  TIP3      H1             27.2088842613       18.4708799899       41.2211676989  TIP3      4538            0.0000000000
     38514      4738  TIP3      H2             25.6921416887       18.6402195952       41.2209718303  TIP3      4538            0.0000000000
     38515      4739  TIP3      OH2            19.5531411955       12.4780341148       40.0778060574  TIP3      4539            0.0000000000
     38516      4739  TIP3      H1             20.5374884719       12.5374779215       40.1612698782  TIP3      4539            0.0000000000
     38517      4739  TIP3      H2             19.4649618972       11.9770319251       39.2347953311  TIP3      4539            0.0000000000
     38518      4740  TIP3      OH2            18.5176587946       17.6698592170       44.7866756094  TIP3      4540            0.0000000000
     38519      4740  TIP3      H1             17.7149423133       17.1890310900       44.4856799977  TIP3      4540            0.0000000000
     38520      4740  TIP3      H2             18.7138727519       17.1186557447       45.5762824019  TIP3      4540            0.0000000000
     38521      4741  TIP3      OH2            19.1752578465       16.0114245700       46.7252511951  TIP3      4541            0.0000000000
     38522      4741  TIP3      H1             18.8806630890       15.1959727291       47.1890815383  TIP3      4541            0.0000000000
     38523      4741  TIP3      H2             19.6503283353       16.4759158466       47.4469869193  TIP3      4541            0.0000000000
     38524      4742  TIP3      OH2            35.8199708169       10.3953634876       42.7784684650  TIP3      4542            0.0000000000
     38525      4742  TIP3      H1             36.6255022737       10.8595965809       43.0562564070  TIP3      4542            0.0000000000
     38526      4742  TIP3      H2             35.7812344943        9.7293368860       43.4988648484  TIP3      4542            0.0000000000
     38527      4743  TIP3      OH2            36.2007310960        8.7892943301       44.8338088166  TIP3      4543            0.0000000000
     38528      4743  TIP3      H1             35.3458209819        8.3904930141       45.1159723232  TIP3      4543            0.0000000000
     38529      4743  TIP3      H2             36.7256470524        8.6551959626       45.6389730586  TIP3      4543            0.0000000000
     38530      4744  TIP3      OH2            36.9678745279       11.0686641120       49.5002023333  TIP3      4544            0.0000000000
     38531      4744  TIP3      H1             37.8327344653       11.3838966740       49.1999327602  TIP3      4544            0.0000000000
     38532      4744  TIP3      H2             36.4568022185       11.9043423012       49.4553348114  TIP3      4544            0.0000000000
     38533      4745  TIP3      OH2            36.8751235701        8.5447020272       41.0589239279  TIP3      4545            0.0000000000
     38534      4745  TIP3      H1             36.2965025194        8.7156462096       40.2917574528  TIP3      4545            0.0000000000
     38535      4745  TIP3      H2             36.6432644354        9.3052109548       41.6197354063  TIP3      4545            0.0000000000
     38536      4746  TIP3      OH2            34.8108156149        5.4674331626       39.4982050985  TIP3      4546            0.0000000000
     38537      4746  TIP3      H1             35.0765673400        6.0678990316       38.7868996143  TIP3      4546            0.0000000000
     38538      4746  TIP3      H2             34.5692765031        4.6456086616       39.0280132148  TIP3      4546            0.0000000000
     38539      4747  TIP3      OH2            34.1205517968        7.2520254634       45.5174840955  TIP3      4547            0.0000000000
     38540      4747  TIP3      H1             34.6582862334        6.4498991816       45.6309986542  TIP3      4547            0.0000000000
     38541      4747  TIP3      H2             33.5654074531        7.1969649260       46.3311121206  TIP3      4547            0.0000000000
     38542      4748  TIP3      OH2            19.3886781921        9.4620477245       49.0922656542  TIP3      4548            0.0000000000
     38543      4748  TIP3      H1             19.4013010011        8.9499365394       48.2686898601  TIP3      4548            0.0000000000
     38544      4748  TIP3      H2             20.0906418084        9.0594271167       49.6302323045  TIP3      4548            0.0000000000
     38545      4749  TIP3      OH2            34.1888375296        2.9343284158       38.7402623824  TIP3      4549            0.0000000000
     38546      4749  TIP3      H1             34.1238687367        2.6413191079       39.6583834112  TIP3      4549            0.0000000000
     38547      4749  TIP3      H2             33.2943839018        2.6928606038       38.4091902354  TIP3      4549            0.0000000000
     38548      4750  TIP3      OH2            33.8780399973        4.7194942266       43.6814999907  TIP3      4550            0.0000000000
     38549      4750  TIP3      H1             34.1458317341        3.8010141781       43.8617001843  TIP3      4550            0.0000000000
     38550      4750  TIP3      H2             34.6641550187        5.0210607922       43.1828746755  TIP3      4550            0.0000000000
     38551      4751  TIP3      OH2            34.0869405514        5.5630660658       48.4335688629  TIP3      4551            0.0000000000
     38552      4751  TIP3      H1             35.0820776393        5.5964939620       48.4202676176  TIP3      4551            0.0000000000
     38553      4751  TIP3      H2             33.9481516867        4.7064220099       48.8866551287  TIP3      4551            0.0000000000
     38554      4752  TIP3      OH2            34.1518062549        2.0126108955       43.9521715922  TIP3      4552            0.0000000000
     38555      4752  TIP3      H1             34.2806961682        1.6771841291       44.8695090148  TIP3      4552            0.0000000000
     38556      4752  TIP3      H2             33.5714890570        1.3181119010       43.5731376979  TIP3      4552            0.0000000000
     38557      4753  TIP3      OH2            19.9961527374        2.8197360830       48.6163854427  TIP3      4553            0.0000000000
     38558      4753  TIP3      H1             20.2875499317        1.8859317964       48.5805789723  TIP3      4553            0.0000000000
     38559      4753  TIP3      H2             20.8197065536        3.2354077705       48.9570806072  TIP3      4553            0.0000000000
     38560      4754  TIP3      OH2            18.3160762591        5.5464511383       49.8000347178  TIP3      4554            0.0000000000
     38561      4754  TIP3      H1             18.7210984540        5.0970387914       49.0380967466  TIP3      4554            0.0000000000
     38562      4754  TIP3      H2             18.6929669505        6.4345905589       49.7064116422  TIP3      4554            0.0000000000
     38563      4755  TIP3      OH2            36.5347515585        1.8817886118       40.7255403616  TIP3      4555            0.0000000000
     38564      4755  TIP3      H1             36.8608085712        1.3284989441       40.0059883554  TIP3      4555            0.0000000000
     38565      4755  TIP3      H2             36.8315235271        2.7593575628       40.4311512242  TIP3      4555            0.0000000000
     38566      4756  TIP3      OH2            18.7411231696        2.0656885266       43.3362603767  TIP3      4556            0.0000000000
     38567      4756  TIP3      H1             17.8085661537        2.0868809113       43.5952159932  TIP3      4556            0.0000000000
     38568      4756  TIP3      H2             18.6348240771        1.9920245029       42.3699554233  TIP3      4556            0.0000000000
     38569      4757  TIP3      OH2            33.3266458199       17.0666094150       45.6142705838  TIP3      4557            0.0000000000
     38570      4757  TIP3      H1             34.0544958193       16.7541904228       45.0400979720  TIP3      4557            0.0000000000
     38571      4757  TIP3      H2             33.8006561645       17.6001591756       46.2730076450  TIP3      4557            0.0000000000
     38572      4758  TIP3      OH2            20.7342539272       16.9848581826       48.9267220974  TIP3      4558            0.0000000000
     38573      4758  TIP3      H1             20.9789021576       17.0865836891       49.8698282565  TIP3      4558            0.0000000000
     38574      4758  TIP3      H2             21.4932892757       16.4495041881       48.6010495189  TIP3      4558            0.0000000000
     38575      4759  TIP3      OH2            22.7729253619       15.6234313090       47.8590175758  TIP3      4559            0.0000000000
     38576      4759  TIP3      H1             22.8372041835       14.6610426637       47.9160618175  TIP3      4559            0.0000000000
     38577      4759  TIP3      H2             23.6311597822       15.8617076069       48.2816748786  TIP3      4559            0.0000000000
     38578      4760  TIP3      OH2            25.1303016716       16.0716448688       49.0406039025  TIP3      4560            0.0000000000
     38579      4760  TIP3      H1             25.4893744588       15.1860517836       48.8702298918  TIP3      4560            0.0000000000
     38580      4760  TIP3      H2             25.0484581568       16.0825477413       50.0014198010  TIP3      4560            0.0000000000
     38581      4761  TIP3      OH2            28.8483539080        1.9494399410       47.8946367015  TIP3      4561            0.0000000000
     38582      4761  TIP3      H1             28.2514560342        1.2051599150       48.1201005635  TIP3      4561            0.0000000000
     38583      4761  TIP3      H2             29.6270998613        1.4506674681       47.5612587189  TIP3      4561            0.0000000000
     38584      4762  TIP3      OH2            33.8474901684       -0.1684446848       48.2905352915  TIP3      4562            0.0000000000
     38585      4762  TIP3      H1             34.3202987002        0.3636864907       47.6120161842  TIP3      4562            0.0000000000
     38586      4762  TIP3      H2             32.9404939725        0.0313896379       48.0374185660  TIP3      4562            0.0000000000
     38587      4763  TIP3      OH2            35.1286588032        0.9630892016       46.2647923833  TIP3      4563            0.0000000000
     38588      4763  TIP3      H1             35.7556324080        0.3402561674       45.8211451747  TIP3      4563            0.0000000000
     38589      4763  TIP3      H2             35.6443708472        1.8022548899       46.2774072709  TIP3      4563            0.0000000000
     38590      4764  TIP3      OH2            21.0053041619       -0.1119979867       45.2963855618  TIP3      4564            0.0000000000
     38591      4764  TIP3      H1             20.1890786484       -0.3417387471       44.7963215178  TIP3      4564            0.0000000000
     38592      4764  TIP3      H2             21.4920149716       -0.9669651188       45.2294622658  TIP3      4564            0.0000000000
     38593      4765  TIP3      OH2            20.1411271360       -0.1574823933       41.6015212927  TIP3      4565            0.0000000000
     38594      4765  TIP3      H1             20.4600549790        0.4826617036       40.9449955800  TIP3      4565            0.0000000000
     38595      4765  TIP3      H2             19.2364598979        0.1687110242       41.7526703798  TIP3      4565            0.0000000000
     38596      4766  TIP3      OH2            25.0557905049       -0.2631122767       45.4383489524  TIP3      4566            0.0000000000
     38597      4766  TIP3      H1             25.8946889834       -0.1551970618       44.9737000089  TIP3      4566            0.0000000000
     38598      4766  TIP3      H2             25.3628548418       -0.2831510392       46.3562697091  TIP3      4566            0.0000000000
     38599      4767  TIP3      OH2            30.8984158607        0.3661717114       46.5635297891  TIP3      4567            0.0000000000
     38600      4767  TIP3      H1             30.9505613011        0.2962260067       45.6045259490  TIP3      4567            0.0000000000
     38601      4767  TIP3      H2             30.6417349407       -0.5485941819       46.8355802405  TIP3      4567            0.0000000000
     38602      4768  TIP3      OH2            32.5171421706        0.0740674022       43.1581980048  TIP3      4568            0.0000000000
     38603      4768  TIP3      H1             31.6687156006        0.5010176764       43.0075906917  TIP3      4568            0.0000000000
     38604      4768  TIP3      H2             32.2569999150       -0.8274312202       43.4365515542  TIP3      4568            0.0000000000
     38605      4769  TIP3      OH2            19.8727943687       15.8691478425       42.5416738623  TIP3      4569            0.0000000000
     38606      4769  TIP3      H1             19.1828095082       15.7668855566       41.8592474575  TIP3      4569            0.0000000000
     38607      4769  TIP3      H2             20.1131528697       16.8001475152       42.3669018138  TIP3      4569            0.0000000000
     38608      4770  TIP3      OH2            21.0962724555        1.9481730874       39.8999641399  TIP3      4570            0.0000000000
     38609      4770  TIP3      H1             21.7362563853        1.4526082675       39.3502527718  TIP3      4570            0.0000000000
     38610      4770  TIP3      H2             21.6494023823        2.1809405818       40.6561277304  TIP3      4570            0.0000000000
     38611      4771  TIP3      OH2            26.9568610482        2.1125953546       42.0207448245  TIP3      4571            0.0000000000
     38612      4771  TIP3      H1             27.3642619395        1.5358331747       42.6866012420  TIP3      4571            0.0000000000
     38613      4771  TIP3      H2             27.0704950713        2.9842715945       42.4669923488  TIP3      4571            0.0000000000
     38614      4772  TIP3      OH2            29.0047540730       17.2585759693       41.0603113598  TIP3      4572            0.0000000000
     38615      4772  TIP3      H1             29.9239719608       17.2343405545       40.7040028859  TIP3      4572            0.0000000000
     38616      4772  TIP3      H2             28.5329919213       16.8092982518       40.3299464446  TIP3      4572            0.0000000000
     38617      4773  TIP3      OH2            35.2220458613       16.5365545771       43.7093838653  TIP3      4573            0.0000000000
     38618      4773  TIP3      H1             35.0587043912       15.7405334760       43.1481687353  TIP3      4573            0.0000000000
     38619      4773  TIP3      H2             35.1559648844       17.2403351518       43.0382624152  TIP3      4573            0.0000000000
     38620      4774  TIP3      OH2            21.2362613059       16.3571733975       39.4403905987  TIP3      4574            0.0000000000
     38621      4774  TIP3      H1             21.2538398390       16.9585794535       40.1976332863  TIP3      4574            0.0000000000
     38622      4774  TIP3      H2             22.1737920286       16.0755107620       39.4147468228  TIP3      4574            0.0000000000
     38623      4775  TIP3      OH2            37.2392636930        6.3076191838       44.6959830743  TIP3      4575            0.0000000000
     38624      4775  TIP3      H1             36.8861396605        7.1559126245       44.3741153712  TIP3      4575            0.0000000000
     38625      4775  TIP3      H2             36.6287443188        5.6697489396       44.2869025590  TIP3      4575            0.0000000000
     38626      4776  TIP3      OH2            37.0545041147       13.7532843234       48.9373640506  TIP3      4576            0.0000000000
     38627      4776  TIP3      H1             38.0209330841       13.8448212892       49.0517834305  TIP3      4576            0.0000000000
     38628      4776  TIP3      H2             36.6995538244       14.1488056847       49.7546132855  TIP3      4576            0.0000000000
     38629      4777  TIP3      OH2            36.6097076852        3.2715594046       45.9755955081  TIP3      4577            0.0000000000
     38630      4777  TIP3      H1             37.5635856985        3.4209026172       46.1845397290  TIP3      4577            0.0000000000
     38631      4777  TIP3      H2             36.6852832333        2.8707025618       45.0838719146  TIP3      4577            0.0000000000
     38632      4778  TIP3      OH2            36.7447407515       17.9144258125       45.3171295639  TIP3      4578            0.0000000000
     38633      4778  TIP3      H1             36.2593603332       17.3799215634       44.6497867616  TIP3      4578            0.0000000000
     38634      4778  TIP3      H2             36.8022348799       17.2612773665       46.0497059797  TIP3      4578            0.0000000000
     38635      4779  TIP3      OH2            37.0484862854       16.3660259088       47.4426565375  TIP3      4579            0.0000000000
     38636      4779  TIP3      H1             36.5340966212       15.5993851847       47.7495357372  TIP3      4579            0.0000000000
     38637      4779  TIP3      H2             37.9671288845       16.0570798674       47.5120816497  TIP3      4579            0.0000000000
     38638      4780  TIP3      OH2            38.1274588720        8.1154176054       49.2942696606  TIP3      4580            0.0000000000
     38639      4780  TIP3      H1             38.5351270390        8.3651646206       48.4344409500  TIP3      4580            0.0000000000
     38640      4780  TIP3      H2             38.2394693948        8.9386619375       49.8062238795  TIP3      4580            0.0000000000
     38641      4781  TIP3      OH2            36.6263285960        5.9092341247       48.9418071016  TIP3      4581            0.0000000000
     38642      4781  TIP3      H1             37.3984711421        5.3347132809       48.9472196405  TIP3      4581            0.0000000000
     38643      4781  TIP3      H2             37.0493652459        6.7403843549       49.2275800207  TIP3      4581            0.0000000000
     38644      4782  TIP3      OH2            36.7711799921        2.2740535508       43.4665027784  TIP3      4582            0.0000000000
     38645      4782  TIP3      H1             35.7932338571        2.2578455822       43.4356799609  TIP3      4582            0.0000000000
     38646      4782  TIP3      H2             36.9870589485        2.1657053786       42.5147583114  TIP3      4582            0.0000000000
     38647      4783  TIP3      OH2           -26.2741043951       28.3406958922       45.4127571804  TIP3      4583            0.0000000000
     38648      4783  TIP3      H1            -26.5752712241       29.2644087939       45.5273107387  TIP3      4583            0.0000000000
     38649      4783  TIP3      H2            -26.9498170941       27.9921885352       44.8137261584  TIP3      4583            0.0000000000
     38650      4784  TIP3      OH2           -27.3773925210       27.3414331509       48.8975077630  TIP3      4584            0.0000000000
     38651      4784  TIP3      H1            -27.5265628707       26.8688528885       49.7401814981  TIP3      4584            0.0000000000
     38652      4784  TIP3      H2            -27.9685001807       26.8753458646       48.2892811373  TIP3      4584            0.0000000000
     38653      4785  TIP3      OH2           -24.2352666774       30.0163838593       47.1497479020  TIP3      4585            0.0000000000
     38654      4785  TIP3      H1            -24.3646258193       29.2490250493       47.7471392012  TIP3      4585            0.0000000000
     38655      4785  TIP3      H2            -23.8537750001       30.6709942203       47.7846160594  TIP3      4585            0.0000000000
     38656      4786  TIP3      OH2           -34.5911419204       31.4262047999       48.7622148578  TIP3      4586            0.0000000000
     38657      4786  TIP3      H1            -34.7435914889       30.5197273080       48.3810209890  TIP3      4586            0.0000000000
     38658      4786  TIP3      H2            -33.6774460006       31.3118258145       49.0617216615  TIP3      4586            0.0000000000
     38659      4787  TIP3      OH2           -37.1970614020       24.5022802667       43.9078829048  TIP3      4587            0.0000000000
     38660      4787  TIP3      H1            -36.9577290087       25.3419510324       44.3214129507  TIP3      4587            0.0000000000
     38661      4787  TIP3      H2            -38.1395587223       24.4641319522       44.1754718865  TIP3      4587            0.0000000000
     38662      4788  TIP3      OH2           -37.1125234667       27.3186275045       46.9528832356  TIP3      4588            0.0000000000
     38663      4788  TIP3      H1            -36.8131235825       26.3964010622       47.1230869698  TIP3      4588            0.0000000000
     38664      4788  TIP3      H2            -36.3021471727       27.7131093227       46.5992758749  TIP3      4588            0.0000000000
     38665      4789  TIP3      OH2           -26.6384936826       35.4627410331       47.7666379208  TIP3      4589            0.0000000000
     38666      4789  TIP3      H1            -25.9305692669       34.9647269858       47.2851514609  TIP3      4589            0.0000000000
     38667      4789  TIP3      H2            -26.9223529833       34.7767297468       48.3994349472  TIP3      4589            0.0000000000
     38668      4790  TIP3      OH2           -28.7201744172       30.1498243719       49.9247290571  TIP3      4590            0.0000000000
     38669      4790  TIP3      H1            -28.3063527928       29.4913845417       49.3411387837  TIP3      4590            0.0000000000
     38670      4790  TIP3      H2            -28.1189054130       30.1222569293       50.6848140803  TIP3      4590            0.0000000000
     38671      4791  TIP3      OH2           -26.1566018040       24.3352138727       49.8734712049  TIP3      4591            0.0000000000
     38672      4791  TIP3      H1            -25.8692630673       23.4080226551       49.9512149778  TIP3      4591            0.0000000000
     38673      4791  TIP3      H2            -26.0092557932       24.5030076799       48.9289731133  TIP3      4591            0.0000000000
     38674      4792  TIP3      OH2           -32.4138843149       22.0774471195       47.1788365821  TIP3      4592            0.0000000000
     38675      4792  TIP3      H1            -32.2722947877       22.9311329848       46.7023848032  TIP3      4592            0.0000000000
     38676      4792  TIP3      H2            -32.9223716598       21.6043855250       46.4979532753  TIP3      4592            0.0000000000
     38677      4793  TIP3      OH2           -25.3479946149       22.5637893818       45.3715300198  TIP3      4593            0.0000000000
     38678      4793  TIP3      H1            -24.8183538654       22.1828769913       46.1164061733  TIP3      4593            0.0000000000
     38679      4793  TIP3      H2            -24.6893899565       23.1932222493       45.0501457711  TIP3      4593            0.0000000000
     38680      4794  TIP3      OH2           -36.1013643411       24.8759291115       47.3707819522  TIP3      4594            0.0000000000
     38681      4794  TIP3      H1            -35.4634035725       24.2636620965       47.7869302535  TIP3      4594            0.0000000000
     38682      4794  TIP3      H2            -35.9787774596       24.5827889885       46.4482544517  TIP3      4594            0.0000000000
     38683      4795  TIP3      OH2           -31.3183308330       26.1411795716       47.0930276171  TIP3      4595            0.0000000000
     38684      4795  TIP3      H1            -30.5923226497       25.6399086275       47.4979412095  TIP3      4595            0.0000000000
     38685      4795  TIP3      H2            -31.7865491175       25.4105712848       46.6294583474  TIP3      4595            0.0000000000
     38686      4796  TIP3      OH2           -27.0927507688       30.7962095589       44.1299651333  TIP3      4596            0.0000000000
     38687      4796  TIP3      H1            -27.2849754863       30.8311031923       43.1762851684  TIP3      4596            0.0000000000
     38688      4796  TIP3      H2            -26.9631933219       31.7239334809       44.3380605419  TIP3      4596            0.0000000000
     38689      4797  TIP3      OH2           -23.5557766870       21.9614642729       47.1883387301  TIP3      4597            0.0000000000
     38690      4797  TIP3      H1            -24.1536837357       21.7913720621       47.9566686099  TIP3      4597            0.0000000000
     38691      4797  TIP3      H2            -22.7125010398       21.6521465614       47.5408879715  TIP3      4597            0.0000000000
     38692      4798  TIP3      OH2           -34.4314059124       23.1670820670       48.7913354307  TIP3      4598            0.0000000000
     38693      4798  TIP3      H1            -33.9884557269       23.8332970729       49.3240030878  TIP3      4598            0.0000000000
     38694      4798  TIP3      H2            -33.7013324893       22.7558670992       48.2797894367  TIP3      4598            0.0000000000
     38695      4799  TIP3      OH2           -37.0908364408       30.2268760442       42.6702628151  TIP3      4599            0.0000000000
     38696      4799  TIP3      H1            -37.1681161088       30.7649948175       41.8503110691  TIP3      4599            0.0000000000
     38697      4799  TIP3      H2            -36.8306002483       30.8832803995       43.3314557675  TIP3      4599            0.0000000000
     38698      4800  TIP3      OH2           -23.4167143546       31.9052686394       48.8240648791  TIP3      4600            0.0000000000
     38699      4800  TIP3      H1            -23.6686232476       31.4183316715       49.6398941021  TIP3      4600            0.0000000000
     38700      4800  TIP3      H2            -22.8821676116       32.6303783084       49.1679140980  TIP3      4600            0.0000000000
     38701      4801  TIP3      OH2           -29.8722160596       18.9599745880       48.4688607873  TIP3      4601            0.0000000000
     38702      4801  TIP3      H1            -29.6821507293       18.0133428303       48.4306845241  TIP3      4601            0.0000000000
     38703      4801  TIP3      H2            -30.8592060507       18.9953396671       48.6014598317  TIP3      4601            0.0000000000
     38704      4802  TIP3      OH2           -25.1249328893       34.1692149256       46.1012813839  TIP3      4602            0.0000000000
     38705      4802  TIP3      H1            -24.8065602013       33.2493823356       46.1610895643  TIP3      4602            0.0000000000
     38706      4802  TIP3      H2            -24.2853046512       34.5973957906       45.7818324967  TIP3      4602            0.0000000000
     38707      4803  TIP3      OH2           -23.6626930663       31.7255874859       45.1591490206  TIP3      4603            0.0000000000
     38708      4803  TIP3      H1            -23.8917560550       31.2315080641       44.3533196622  TIP3      4603            0.0000000000
     38709      4803  TIP3      H2            -23.8231808342       31.0450141044       45.8477255951  TIP3      4603            0.0000000000
     38710      4804  TIP3      OH2           -27.7392233858       27.5079774960       42.9092592463  TIP3      4604            0.0000000000
     38711      4804  TIP3      H1            -28.3245376304       28.2503982571       42.6369017408  TIP3      4604            0.0000000000
     38712      4804  TIP3      H2            -26.8681412922       27.7827364612       42.5393873877  TIP3      4604            0.0000000000
     38713      4805  TIP3      OH2           -27.5070799146       26.3528410306       39.8872030187  TIP3      4605            0.0000000000
     38714      4805  TIP3      H1            -26.9854988886       26.6805577448       40.6505904102  TIP3      4605            0.0000000000
     38715      4805  TIP3      H2            -27.1618378693       25.4492535035       39.7821202845  TIP3      4605            0.0000000000
     38716      4806  TIP3      OH2           -23.9255813582       27.4533905006       44.0420522733  TIP3      4606            0.0000000000
     38717      4806  TIP3      H1            -24.6648366761       27.8058205174       44.5889264635  TIP3      4606            0.0000000000
     38718      4806  TIP3      H2            -23.2961679092       27.1319873206       44.7210481537  TIP3      4606            0.0000000000
     38719      4807  TIP3      OH2           -32.5026724117       28.1297468699       45.8249326303  TIP3      4607            0.0000000000
     38720      4807  TIP3      H1            -32.9511392107       27.8191371336       45.0145686883  TIP3      4607            0.0000000000
     38721      4807  TIP3      H2            -31.9797704183       27.3599301909       46.1301626618  TIP3      4607            0.0000000000
     38722      4808  TIP3      OH2           -30.9936188702       31.7134942140       48.5827737510  TIP3      4608            0.0000000000
     38723      4808  TIP3      H1            -31.2601283808       31.2658385136       47.7607011630  TIP3      4608            0.0000000000
     38724      4808  TIP3      H2            -30.3164111880       31.1278799669       48.9488394285  TIP3      4608            0.0000000000
     38725      4809  TIP3      OH2           -32.8014385432       27.1737038623       49.3970697615  TIP3      4609            0.0000000000
     38726      4809  TIP3      H1            -32.3516089860       27.0090982178       48.5489579079  TIP3      4609            0.0000000000
     38727      4809  TIP3      H2            -32.1062767524       27.0500842969       50.0501148520  TIP3      4609            0.0000000000
     38728      4810  TIP3      OH2           -25.4017921377       27.2790319614       41.6778464601  TIP3      4610            0.0000000000
     38729      4810  TIP3      H1            -24.8063597617       27.3521605884       42.4601450880  TIP3      4610            0.0000000000
     38730      4810  TIP3      H2            -24.7924031935       27.4922317407       40.9249745455  TIP3      4610            0.0000000000
     38731      4811  TIP3      OH2           -27.9283261029       34.5424997740       45.4680773563  TIP3      4611            0.0000000000
     38732      4811  TIP3      H1            -27.2944369331       33.8492987014       45.6904404169  TIP3      4611            0.0000000000
     38733      4811  TIP3      H2            -27.5902981210       35.2395238693       46.0777266249  TIP3      4611            0.0000000000
     38734      4812  TIP3      OH2           -21.5206676736       18.3549980223       42.0583091938  TIP3      4612            0.0000000000
     38735      4812  TIP3      H1            -22.3983110691       18.5773170341       42.4373512803  TIP3      4612            0.0000000000
     38736      4812  TIP3      H2            -21.2276970038       19.2079040618       41.6671913615  TIP3      4612            0.0000000000
     38737      4813  TIP3      OH2           -33.8948519029       27.0396062023       43.4984307344  TIP3      4613            0.0000000000
     38738      4813  TIP3      H1            -33.9741718201       27.8849403645       43.0108204026  TIP3      4613            0.0000000000
     38739      4813  TIP3      H2            -34.2868757833       26.4270496595       42.8715449888  TIP3      4613            0.0000000000
     38740      4814  TIP3      OH2           -20.4355297443       32.7801383807       40.2626121903  TIP3      4614            0.0000000000
     38741      4814  TIP3      H1            -20.1207491076       33.7160392161       40.2210056202  TIP3      4614            0.0000000000
     38742      4814  TIP3      H2            -19.5968175593       32.2681885986       40.3180124028  TIP3      4614            0.0000000000
     38743      4815  TIP3      OH2           -37.0620952958       32.5926491077       48.6226430115  TIP3      4615            0.0000000000
     38744      4815  TIP3      H1            -36.2291032576       32.0968046336       48.8044704754  TIP3      4615            0.0000000000
     38745      4815  TIP3      H2            -36.8206067044       33.4822521778       48.9633078288  TIP3      4615            0.0000000000
     38746      4816  TIP3      OH2           -28.6027302039       36.5363767146       43.2838101725  TIP3      4616            0.0000000000
     38747      4816  TIP3      H1            -28.2632341585       36.4752546305       42.3563194461  TIP3      4616            0.0000000000
     38748      4816  TIP3      H2            -28.3513289420       37.4326129163       43.5339081273  TIP3      4616            0.0000000000
     38749      4817  TIP3      OH2           -34.3621559320       35.0163656575       45.2478957632  TIP3      4617            0.0000000000
     38750      4817  TIP3      H1            -34.1538118441       34.9211803151       46.2085298407  TIP3      4617            0.0000000000
     38751      4817  TIP3      H2            -35.1770145727       34.4830159753       45.1746778463  TIP3      4617            0.0000000000
     38752      4818  TIP3      OH2           -25.0469012623       35.4372261793       40.8666612175  TIP3      4618            0.0000000000
     38753      4818  TIP3      H1            -24.3273553806       34.8745222387       40.5007361841  TIP3      4618            0.0000000000
     38754      4818  TIP3      H2            -24.9704854339       35.2391472000       41.8220427239  TIP3      4618            0.0000000000
     38755      4819  TIP3      OH2           -25.6343649838       35.2782335013       43.4192805742  TIP3      4619            0.0000000000
     38756      4819  TIP3      H1            -26.5373481705       35.5309066329       43.6441331801  TIP3      4619            0.0000000000
     38757      4819  TIP3      H2            -25.4446380850       34.5537092447       44.0416336495  TIP3      4619            0.0000000000
     38758      4820  TIP3      OH2           -32.4681765400       19.4009076934       48.5250809228  TIP3      4620            0.0000000000
     38759      4820  TIP3      H1            -33.3841852868       19.5062335906       48.1885476535  TIP3      4620            0.0000000000
     38760      4820  TIP3      H2            -32.3526139059       20.2738615791       48.9311005461  TIP3      4620            0.0000000000
     38761      4821  TIP3      OH2           -23.7189068033       28.1607379417       39.8706312736  TIP3      4621            0.0000000000
     38762      4821  TIP3      H1            -23.8835590554       28.3334746500       38.9206575612  TIP3      4621            0.0000000000
     38763      4821  TIP3      H2            -22.7588276743       28.3493026520       39.9049245266  TIP3      4621            0.0000000000
     38764      4822  TIP3      OH2           -28.2038433159       21.8121658692       39.9167504393  TIP3      4622            0.0000000000
     38765      4822  TIP3      H1            -28.5388929531       21.7427772185       40.8218054028  TIP3      4622            0.0000000000
     38766      4822  TIP3      H2            -28.7658352595       21.1378123958       39.5021106398  TIP3      4622            0.0000000000
     38767      4823  TIP3      OH2           -32.4295558957       24.2216844528       45.6555161650  TIP3      4623            0.0000000000
     38768      4823  TIP3      H1            -33.3990497451       24.0999351862       45.5088209270  TIP3      4623            0.0000000000
     38769      4823  TIP3      H2            -32.1041373447       24.2470027462       44.7153013198  TIP3      4623            0.0000000000
     38770      4824  TIP3      OH2           -26.9273257372       25.3305964535       44.0592039274  TIP3      4624            0.0000000000
     38771      4824  TIP3      H1            -27.2418731098       26.0983930048       43.5189211795  TIP3      4624            0.0000000000
     38772      4824  TIP3      H2            -26.3194688662       24.9292432072       43.4091257258  TIP3      4624            0.0000000000
     38773      4825  TIP3      OH2           -26.1033886346       24.8399885904       47.1240195612  TIP3      4625            0.0000000000
     38774      4825  TIP3      H1            -26.2757976991       25.5970868008       46.5330163539  TIP3      4625            0.0000000000
     38775      4825  TIP3      H2            -26.0320366358       24.1238373546       46.4739140188  TIP3      4625            0.0000000000
     38776      4826  TIP3      OH2           -31.8347020180       22.2263989657       39.3026842838  TIP3      4626            0.0000000000
     38777      4826  TIP3      H1            -32.2262605529       21.6857789488       40.0250892941  TIP3      4626            0.0000000000
     38778      4826  TIP3      H2            -32.5939280614       22.3840961716       38.7327451634  TIP3      4626            0.0000000000
     38779      4827  TIP3      OH2           -37.6018001003       21.6824229115       46.4082671924  TIP3      4627            0.0000000000
     38780      4827  TIP3      H1            -37.2517159695       21.7208112914       47.3303715620  TIP3      4627            0.0000000000
     38781      4827  TIP3      H2            -37.0823013418       20.9441869418       46.0568995437  TIP3      4627            0.0000000000
     38782      4828  TIP3      OH2           -37.2806276362       22.6290693032       41.5958456033  TIP3      4628            0.0000000000
     38783      4828  TIP3      H1            -36.6297733631       22.9769569037       40.9469814241  TIP3      4628            0.0000000000
     38784      4828  TIP3      H2            -37.3909856682       23.4101984289       42.1713169130  TIP3      4628            0.0000000000
     38785      4829  TIP3      OH2           -29.5968120255       22.1176327846       46.2108177884  TIP3      4629            0.0000000000
     38786      4829  TIP3      H1            -30.4243494381       22.0541451366       46.7220884582  TIP3      4629            0.0000000000
     38787      4829  TIP3      H2            -28.9698027484       21.6826489390       46.8210333838  TIP3      4629            0.0000000000
     38788      4830  TIP3      OH2           -35.0329635599       23.6747541574       45.1675980893  TIP3      4630            0.0000000000
     38789      4830  TIP3      H1            -35.7296899882       23.7091498899       44.4730440240  TIP3      4630            0.0000000000
     38790      4830  TIP3      H2            -34.9108115083       22.6987230330       45.2132742066  TIP3      4630            0.0000000000
     38791      4831  TIP3      OH2           -31.6131187346       23.9447674452       43.0966579598  TIP3      4631            0.0000000000
     38792      4831  TIP3      H1            -30.6925476025       23.8335705257       42.8150223837  TIP3      4631            0.0000000000
     38793      4831  TIP3      H2            -31.9878091177       24.4996031160       42.3959483892  TIP3      4631            0.0000000000
     38794      4832  TIP3      OH2           -25.4300442636       21.7672736604       49.0932195275  TIP3      4632            0.0000000000
     38795      4832  TIP3      H1            -25.4124125326       21.4500962443       50.0149614546  TIP3      4632            0.0000000000
     38796      4832  TIP3      H2            -26.3688497418       21.6055070929       48.8673228244  TIP3      4632            0.0000000000
     38797      4833  TIP3      OH2           -32.6977034663       25.1355605772       40.4618753793  TIP3      4633            0.0000000000
     38798      4833  TIP3      H1            -33.1112980697       24.5474328858       39.8164712403  TIP3      4633            0.0000000000
     38799      4833  TIP3      H2            -31.8682239864       25.3485643186       39.9933265475  TIP3      4633            0.0000000000
     38800      4834  TIP3      OH2           -28.8405501009       24.8724326208       48.3981016146  TIP3      4634            0.0000000000
     38801      4834  TIP3      H1            -28.3249859532       24.7864540967       47.5843029092  TIP3      4634            0.0000000000
     38802      4834  TIP3      H2            -28.2581942371       24.3890145877       49.0120216613  TIP3      4634            0.0000000000
     38803      4835  TIP3      OH2           -34.2145846831       21.1692932667       45.2064777574  TIP3      4635            0.0000000000
     38804      4835  TIP3      H1            -34.7411282091       20.3583392830       45.4227814252  TIP3      4635            0.0000000000
     38805      4835  TIP3      H2            -33.7672107910       20.8300920504       44.4155256330  TIP3      4635            0.0000000000
     38806      4836  TIP3      OH2           -29.4005160313       29.4822875009       42.4676764185  TIP3      4636            0.0000000000
     38807      4836  TIP3      H1            -30.1766020620       28.9808954083       42.1241803999  TIP3      4636            0.0000000000
     38808      4836  TIP3      H2            -29.7374031170       29.7539156072       43.3590243555  TIP3      4636            0.0000000000
     38809      4837  TIP3      OH2           -25.7916033511       22.2839494703       40.9445686475  TIP3      4637            0.0000000000
     38810      4837  TIP3      H1            -26.6719585039       22.2525752255       40.5125495228  TIP3      4637            0.0000000000
     38811      4837  TIP3      H2            -25.6062752670       23.2495858239       40.9554128992  TIP3      4637            0.0000000000
     38812      4838  TIP3      OH2           -25.0451702817       24.5827016607       42.0023707218  TIP3      4638            0.0000000000
     38813      4838  TIP3      H1            -24.3738118742       24.2401705173       42.6139202192  TIP3      4638            0.0000000000
     38814      4838  TIP3      H2            -24.6502858250       25.4177552331       41.7238663287  TIP3      4638            0.0000000000
     38815      4839  TIP3      OH2           -34.2388520014       29.0238508877       47.7568519889  TIP3      4639            0.0000000000
     38816      4839  TIP3      H1            -33.6767192709       28.7777098161       46.9936369357  TIP3      4639            0.0000000000
     38817      4839  TIP3      H2            -33.7971502656       28.5353303944       48.4814092268  TIP3      4639            0.0000000000
     38818      4840  TIP3      OH2           -27.5823572331       30.9641116276       41.3634923863  TIP3      4640            0.0000000000
     38819      4840  TIP3      H1            -28.1126057150       31.7558088880       41.5597086203  TIP3      4640            0.0000000000
     38820      4840  TIP3      H2            -28.1354428165       30.2553855482       41.7665442964  TIP3      4640            0.0000000000
     38821      4841  TIP3      OH2           -20.2508833955       24.2229604472       42.0810010141  TIP3      4641            0.0000000000
     38822      4841  TIP3      H1            -20.7855615140       24.1811349913       41.2547454158  TIP3      4641            0.0000000000
     38823      4841  TIP3      H2            -20.0301965697       25.1690627414       42.1290160371  TIP3      4641            0.0000000000
     38824      4842  TIP3      OH2           -22.1271362718       33.1049685552       42.3874784640  TIP3      4642            0.0000000000
     38825      4842  TIP3      H1            -22.1242219739       32.3139635133       42.9348568999  TIP3      4642            0.0000000000
     38826      4842  TIP3      H2            -21.5712751490       32.8559015847       41.6169294213  TIP3      4642            0.0000000000
     38827      4843  TIP3      OH2           -24.7510307437       28.0971212350       48.9540943504  TIP3      4643            0.0000000000
     38828      4843  TIP3      H1            -25.6962998994       27.8591751109       48.8117833175  TIP3      4643            0.0000000000
     38829      4843  TIP3      H2            -24.2768204706       27.3641393096       48.5053189426  TIP3      4643            0.0000000000
     38830      4844  TIP3      OH2           -32.0703868754       32.1603953323       45.7632605439  TIP3      4644            0.0000000000
     38831      4844  TIP3      H1            -31.8048590936       33.0667887090       45.9899823315  TIP3      4644            0.0000000000
     38832      4844  TIP3      H2            -32.9454021727       32.2782598291       45.3648653123  TIP3      4644            0.0000000000
     38833      4845  TIP3      OH2           -36.0492468911       27.2399007228       40.3670695876  TIP3      4645            0.0000000000
     38834      4845  TIP3      H1            -35.5542108643       28.0250704139       40.6916518618  TIP3      4645            0.0000000000
     38835      4845  TIP3      H2            -36.9358342366       27.3803209586       40.7392345106  TIP3      4645            0.0000000000
     38836      4846  TIP3      OH2           -30.6806728051       29.9667589264       44.6994984184  TIP3      4646            0.0000000000
     38837      4846  TIP3      H1            -31.2918895961       30.6123971190       45.1201771456  TIP3      4646            0.0000000000
     38838      4846  TIP3      H2            -30.8593238284       29.1671983509       45.2199325492  TIP3      4646            0.0000000000
     38839      4847  TIP3      OH2           -31.7123404515       34.7289001235       44.6427225959  TIP3      4647            0.0000000000
     38840      4847  TIP3      H1            -32.6963129870       34.7819257164       44.7031478415  TIP3      4647            0.0000000000
     38841      4847  TIP3      H2            -31.4826917017       35.5788928353       45.0936852763  TIP3      4647            0.0000000000
     38842      4848  TIP3      OH2           -24.0770584011       31.3185018758       40.2384217022  TIP3      4648            0.0000000000
     38843      4848  TIP3      H1            -23.9493391529       30.8311138455       41.0810666174  TIP3      4648            0.0000000000
     38844      4848  TIP3      H2            -25.0115178936       31.1203280613       40.0736507059  TIP3      4648            0.0000000000
     38845      4849  TIP3      OH2           -19.6513587406       35.3446527739       40.3485130434  TIP3      4649            0.0000000000
     38846      4849  TIP3      H1            -19.0442917006       36.0969179223       40.4137978939  TIP3      4649            0.0000000000
     38847      4849  TIP3      H2            -20.5240346936       35.7724593481       40.5737415053  TIP3      4649            0.0000000000
     38848      4850  TIP3      OH2           -23.4960583983       29.9181100748       42.6146814894  TIP3      4650            0.0000000000
     38849      4850  TIP3      H1            -23.7278244474       29.0522315374       43.0067702135  TIP3      4650            0.0000000000
     38850      4850  TIP3      H2            -22.5700848882       29.7663108834       42.3359549230  TIP3      4650            0.0000000000
     38851      4851  TIP3      OH2           -29.9460599983       32.4184591554       38.9603722226  TIP3      4651            0.0000000000
     38852      4851  TIP3      H1            -30.0957394237       31.8595709246       38.1810944289  TIP3      4651            0.0000000000
     38853      4851  TIP3      H2            -30.7086849288       32.1336157129       39.5086495091  TIP3      4651            0.0000000000
     38854      4852  TIP3      OH2           -31.5426749993       31.8808002521       41.2769767637  TIP3      4652            0.0000000000
     38855      4852  TIP3      H1            -30.8857227079       31.4352609640       41.8341049808  TIP3      4652            0.0000000000
     38856      4852  TIP3      H2            -31.4482250367       32.8088295903       41.5787568110  TIP3      4652            0.0000000000
     38857      4853  TIP3      OH2           -34.6905636052       29.1454728118       41.7754509012  TIP3      4653            0.0000000000
     38858      4853  TIP3      H1            -35.4642372952       29.4823736812       42.2753799917  TIP3      4653            0.0000000000
     38859      4853  TIP3      H2            -34.3510921175       29.9427063440       41.3221465516  TIP3      4653            0.0000000000
     38860      4854  TIP3      OH2           -26.0428154467       21.0187488229       43.2516727737  TIP3      4654            0.0000000000
     38861      4854  TIP3      H1            -25.8049012154       21.5644123898       42.4628679577  TIP3      4654            0.0000000000
     38862      4854  TIP3      H2            -25.7987001876       21.6146253272       43.9913060804  TIP3      4654            0.0000000000
     38863      4855  TIP3      OH2           -28.3765582783       33.3943780746       42.2112806606  TIP3      4655            0.0000000000
     38864      4855  TIP3      H1            -28.9426124647       33.7689499897       41.5102094210  TIP3      4655            0.0000000000
     38865      4855  TIP3      H2            -27.4929282904       33.5797746792       41.8503200454  TIP3      4655            0.0000000000
     38866      4856  TIP3      OH2           -28.8259137551       23.1408229317       43.8488085192  TIP3      4656            0.0000000000
     38867      4856  TIP3      H1            -28.3680416371       23.9947459061       43.9940135542  TIP3      4656            0.0000000000
     38868      4856  TIP3      H2            -29.1607656901       22.8935303907       44.7463722916  TIP3      4656            0.0000000000
     38869      4857  TIP3      OH2           -28.3156490439       19.9866481425       44.2563719280  TIP3      4657            0.0000000000
     38870      4857  TIP3      H1            -28.5872149752       20.6318585397       44.9324956979  TIP3      4657            0.0000000000
     38871      4857  TIP3      H2            -27.5404684897       20.4535516191       43.8532049286  TIP3      4657            0.0000000000
     38872      4858  TIP3      OH2           -30.9601410575       34.5296565581       41.8768416681  TIP3      4658            0.0000000000
     38873      4858  TIP3      H1            -30.8883577048       35.2334247004       41.1801216842  TIP3      4658            0.0000000000
     38874      4858  TIP3      H2            -31.6863985943       34.8928824777       42.4084641099  TIP3      4658            0.0000000000
     38875      4859  TIP3      OH2           -32.6163271596       21.1584901153       41.6718645554  TIP3      4659            0.0000000000
     38876      4859  TIP3      H1            -32.7377030973       21.9738726831       42.1769556453  TIP3      4659            0.0000000000
     38877      4859  TIP3      H2            -31.6582769239       21.0021418135       41.8311557300  TIP3      4659            0.0000000000
     38878      4860  TIP3      OH2           -23.6569921810       26.0427629736       47.6319901326  TIP3      4660            0.0000000000
     38879      4860  TIP3      H1            -24.4202118615       25.4516802936       47.7569179233  TIP3      4660            0.0000000000
     38880      4860  TIP3      H2            -22.9943338423       25.6277026907       48.2349484671  TIP3      4660            0.0000000000
     38881      4861  TIP3      OH2           -34.2200018880       31.6408446333       40.3082519942  TIP3      4661            0.0000000000
     38882      4861  TIP3      H1            -33.3905812755       31.9837521601       40.7003824965  TIP3      4661            0.0000000000
     38883      4861  TIP3      H2            -33.8581284154       31.0369275379       39.6343314204  TIP3      4661            0.0000000000
     38884      4862  TIP3      OH2           -36.0210819400       24.3919374488       39.8801398183  TIP3      4662            0.0000000000
     38885      4862  TIP3      H1            -35.7605991318       25.2961298129       40.1279802821  TIP3      4662            0.0000000000
     38886      4862  TIP3      H2            -36.6825628065       24.5778734371       39.2031931755  TIP3      4662            0.0000000000
     38887      4863  TIP3      OH2           -22.2621804810       35.2707079058       49.5331882153  TIP3      4663            0.0000000000
     38888      4863  TIP3      H1            -22.0944006067       35.7687216654       48.7173666750  TIP3      4663            0.0000000000
     38889      4863  TIP3      H2            -21.4071965671       35.3493981454       49.9840242880  TIP3      4663            0.0000000000
     38890      4864  TIP3      OH2           -35.1209364958       19.4188075956       48.1264314192  TIP3      4664            0.0000000000
     38891      4864  TIP3      H1            -35.2311873854       19.2443128317       47.1692288023  TIP3      4664            0.0000000000
     38892      4864  TIP3      H2            -35.1887232162       18.4981999738       48.4612729766  TIP3      4664            0.0000000000
     38893      4865  TIP3      OH2           -36.0015837766       32.7271907183       44.5777180948  TIP3      4665            0.0000000000
     38894      4865  TIP3      H1            -36.8741234277       33.0002384360       44.8945598211  TIP3      4665            0.0000000000
     38895      4865  TIP3      H2            -35.8869054922       33.2964204040       43.8020667830  TIP3      4665            0.0000000000
     38896      4866  TIP3      OH2           -27.9026831329       34.2634885781       39.0083884393  TIP3      4666            0.0000000000
     38897      4866  TIP3      H1            -28.4833646749       33.4724506227       38.9876808606  TIP3      4666            0.0000000000
     38898      4866  TIP3      H2            -27.1326569711       33.9577776619       38.4789053076  TIP3      4666            0.0000000000
     38899      4867  TIP3      OH2           -23.2445517630       34.0212119232       39.4525609931  TIP3      4667            0.0000000000
     38900      4867  TIP3      H1            -23.2383237555       33.1067459283       39.7980212104  TIP3      4667            0.0000000000
     38901      4867  TIP3      H2            -22.6064849758       34.0076558923       38.7209464353  TIP3      4667            0.0000000000
     38902      4868  TIP3      OH2           -32.6047692773       29.7807497654       38.7357881997  TIP3      4668            0.0000000000
     38903      4868  TIP3      H1            -32.4797587538       29.1998580827       39.5008102245  TIP3      4668            0.0000000000
     38904      4868  TIP3      H2            -31.7784175008       29.5886037793       38.2253924525  TIP3      4668            0.0000000000
     38905      4869  TIP3      OH2           -26.9483411976       30.9086867572       38.6838698009  TIP3      4669            0.0000000000
     38906      4869  TIP3      H1            -27.5543859516       30.9581366908       39.4458811691  TIP3      4669            0.0000000000
     38907      4869  TIP3      H2            -26.9994410456       29.9414878685       38.5144816431  TIP3      4669            0.0000000000
     38908      4870  TIP3      OH2           -31.4397836216       27.9392998466       41.3636640458  TIP3      4670            0.0000000000
     38909      4870  TIP3      H1            -32.0354977723       27.2900866393       41.7722108263  TIP3      4670            0.0000000000
     38910      4870  TIP3      H2            -30.9662164895       27.3827136247       40.7112463854  TIP3      4670            0.0000000000
     38911      4871  TIP3      OH2           -30.2723496986       26.2810211850       39.3789536061  TIP3      4671            0.0000000000
     38912      4871  TIP3      H1            -30.2081293678       26.6640607881       38.4746118620  TIP3      4671            0.0000000000
     38913      4871  TIP3      H2            -29.3188962497       26.2136281715       39.5982499770  TIP3      4671            0.0000000000
     38914      4872  TIP3      OH2           -21.0966999111       28.4500699188       38.8518297851  TIP3      4672            0.0000000000
     38915      4872  TIP3      H1            -21.2932638033       28.1424009696       37.9364805149  TIP3      4672            0.0000000000
     38916      4872  TIP3      H2            -21.1146267886       29.4275027320       38.7242973477  TIP3      4672            0.0000000000
     38917      4873  TIP3      OH2           -30.4870964158       36.7427953244       40.4342239732  TIP3      4673            0.0000000000
     38918      4873  TIP3      H1            -29.8617829001       37.4386081941       40.6853485462  TIP3      4673            0.0000000000
     38919      4873  TIP3      H2            -31.1200999542       37.2220772447       39.8782465250  TIP3      4673            0.0000000000
     38920      4874  TIP3      OH2           -36.8770403341       31.7327746995       40.5114246326  TIP3      4674            0.0000000000
     38921      4874  TIP3      H1            -35.9003056449       31.8405665179       40.5414325215  TIP3      4674            0.0000000000
     38922      4874  TIP3      H2            -36.9284580625       31.0586486388       39.8061422132  TIP3      4674            0.0000000000
     38923      4875  TIP3      OH2           -38.0788210800       37.1137958050       44.2661351847  TIP3      4675            0.0000000000
     38924      4875  TIP3      H1            -39.0294946254       37.2574916454       44.4636804969  TIP3      4675            0.0000000000
     38925      4875  TIP3      H2            -37.9808011789       36.3426884889       44.8423153016  TIP3      4675            0.0000000000
     38926      4876  TIP3      OH2           -36.9488530762       34.6333995360       46.7483296967  TIP3      4676            0.0000000000
     38927      4876  TIP3      H1            -36.7768854886       33.7082724914       47.0257638137  TIP3      4676            0.0000000000
     38928      4876  TIP3      H2            -36.4964782821       35.1175017004       47.4616300690  TIP3      4676            0.0000000000
     38929      4877  TIP3      OH2           -20.6180750721       29.2838803063       42.4276592213  TIP3      4677            0.0000000000
     38930      4877  TIP3      H1            -19.7497217256       29.7054055841       42.5813818714  TIP3      4677            0.0000000000
     38931      4877  TIP3      H2            -20.6640881980       28.6851976318       43.2070129240  TIP3      4677            0.0000000000
     38932      4878  TIP3      OH2           -20.3503093938       27.6117185015       44.7640853541  TIP3      4678            0.0000000000
     38933      4878  TIP3      H1            -21.0064425321       27.0466345307       45.2302221385  TIP3      4678            0.0000000000
     38934      4878  TIP3      H2            -19.6158384981       27.6480534851       45.4079025521  TIP3      4678            0.0000000000
     38935      4879  TIP3      OH2           -20.2629283580       30.3656609853       49.9080956520  TIP3      4679            0.0000000000
     38936      4879  TIP3      H1            -19.6944989325       29.6832895661       49.5053220368  TIP3      4679            0.0000000000
     38937      4879  TIP3      H2            -20.1671724605       31.1122731777       49.2940252962  TIP3      4679            0.0000000000
     38938      4880  TIP3      OH2           -19.7068441032       27.0988880363       40.9378787785  TIP3      4680            0.0000000000
     38939      4880  TIP3      H1            -20.2913403696       27.3657115560       40.1993454499  TIP3      4680            0.0000000000
     38940      4880  TIP3      H2            -19.8211905289       27.8812676473       41.5199083732  TIP3      4680            0.0000000000
     38941      4881  TIP3      OH2           -21.7448799861       24.2303755066       39.4805717709  TIP3      4681            0.0000000000
     38942      4881  TIP3      H1            -21.4661310659       24.8500623387       38.7967800670  TIP3      4681            0.0000000000
     38943      4881  TIP3      H2            -21.9366556426       23.4445859807       38.9460807168  TIP3      4681            0.0000000000
     38944      4882  TIP3      OH2           -22.1696656573       25.7120401134       45.4380784231  TIP3      4682            0.0000000000
     38945      4882  TIP3      H1            -22.5263940788       24.9429528969       44.9505589014  TIP3      4682            0.0000000000
     38946      4882  TIP3      H2            -22.6647735201       25.6823470430       46.2907040538  TIP3      4682            0.0000000000
     38947      4883  TIP3      OH2           -36.7665433645       28.9256811067       49.1661640664  TIP3      4683            0.0000000000
     38948      4883  TIP3      H1            -36.5779067546       28.4968222574       48.2961482898  TIP3      4683            0.0000000000
     38949      4883  TIP3      H2            -36.2690955139       28.3328117425       49.7585952530  TIP3      4683            0.0000000000
     38950      4884  TIP3      OH2           -22.2322037382       21.6134798088       38.4173694761  TIP3      4684            0.0000000000
     38951      4884  TIP3      H1            -21.9436196696       21.4568739211       39.3425131277  TIP3      4684            0.0000000000
     38952      4884  TIP3      H2            -23.1995825329       21.5148790376       38.4841607179  TIP3      4684            0.0000000000
     38953      4885  TIP3      OH2           -22.8727375990       23.7055793992       43.7432160418  TIP3      4685            0.0000000000
     38954      4885  TIP3      H1            -22.6938764634       22.7552909735       43.9269166323  TIP3      4685            0.0000000000
     38955      4885  TIP3      H2            -22.0693532159       23.8809284126       43.2317907113  TIP3      4685            0.0000000000
     38956      4886  TIP3      OH2           -22.0186087022       24.4148321418       48.8703933311  TIP3      4686            0.0000000000
     38957      4886  TIP3      H1            -21.0580459155       24.2299797384       48.8068340797  TIP3      4686            0.0000000000
     38958      4886  TIP3      H2            -22.3019120644       23.5106212506       49.1299636091  TIP3      4686            0.0000000000
     38959      4887  TIP3      OH2           -22.0775543940       21.1560144564       43.8801175484  TIP3      4687            0.0000000000
     38960      4887  TIP3      H1            -21.7233765034       20.6003649488       44.6068031559  TIP3      4687            0.0000000000
     38961      4887  TIP3      H2            -22.7262036579       20.5389018102       43.4961946134  TIP3      4687            0.0000000000
     38962      4888  TIP3      OH2           -36.7504989048       21.6565743888       48.9427943651  TIP3      4688            0.0000000000
     38963      4888  TIP3      H1            -36.3259653378       20.7834439794       49.0080611127  TIP3      4688            0.0000000000
     38964      4888  TIP3      H2            -36.0194579266       22.2248201509       49.2723762867  TIP3      4688            0.0000000000
     38965      4889  TIP3      OH2           -37.2902346305       24.4386100696       49.9807045102  TIP3      4689            0.0000000000
     38966      4889  TIP3      H1            -36.9717759715       24.2078135323       49.0859488998  TIP3      4689            0.0000000000
     38967      4889  TIP3      H2            -37.7051059890       25.2917489784       49.7942863317  TIP3      4689            0.0000000000
     38968      4890  TIP3      OH2           -20.3700100939       20.9510220476       40.5705395573  TIP3      4690            0.0000000000
     38969      4890  TIP3      H1            -19.9336906808       20.3284621929       39.9552202126  TIP3      4690            0.0000000000
     38970      4890  TIP3      H2            -19.5827393667       21.4123645123       40.9353601875  TIP3      4690            0.0000000000
     38971      4891  TIP3      OH2           -37.2019043465       20.5927847906       43.3021155923  TIP3      4691            0.0000000000
     38972      4891  TIP3      H1            -38.0377772103       20.6569216907       43.7968254888  TIP3      4691            0.0000000000
     38973      4891  TIP3      H2            -37.3612533925       21.2523057096       42.5856312236  TIP3      4691            0.0000000000
     38974      4892  TIP3      OH2           -23.1189910710       35.5502638915       45.1399007419  TIP3      4692            0.0000000000
     38975      4892  TIP3      H1            -22.3069010403       35.4740471804       44.5835205946  TIP3      4692            0.0000000000
     38976      4892  TIP3      H2            -22.8760766643       36.2438203159       45.7814624459  TIP3      4692            0.0000000000
     38977      4893  TIP3      OH2           -35.7361999122       34.9674450396       49.3558030759  TIP3      4693            0.0000000000
     38978      4893  TIP3      H1            -35.3962102045       35.4845151692       50.1318818399  TIP3      4693            0.0000000000
     38979      4893  TIP3      H2            -34.8728384509       34.6192316742       49.0075646833  TIP3      4693            0.0000000000
     38980      4894  TIP3      OH2           -33.7273071696       34.1806173820       47.7042424279  TIP3      4694            0.0000000000
     38981      4894  TIP3      H1            -33.8660805357       33.2203478526       47.8228935984  TIP3      4694            0.0000000000
     38982      4894  TIP3      H2            -32.7813703662       34.2653858290       47.9819023821  TIP3      4694            0.0000000000
     38983      4895  TIP3      OH2           -31.3256331307       34.3603476699       48.7375604962  TIP3      4695            0.0000000000
     38984      4895  TIP3      H1            -31.1435014299       33.4172238546       48.9481635791  TIP3      4695            0.0000000000
     38985      4895  TIP3      H2            -31.0385093670       34.8350011655       49.5296387450  TIP3      4695            0.0000000000
     38986      4896  TIP3      OH2           -27.8657964395       20.8813189225       47.9470910623  TIP3      4696            0.0000000000
     38987      4896  TIP3      H1            -28.5096052369       20.2065994672       48.2625688771  TIP3      4696            0.0000000000
     38988      4896  TIP3      H2            -27.1527648638       20.3030291581       47.6365904046  TIP3      4696            0.0000000000
     38989      4897  TIP3      OH2           -22.4178497173       18.7440610769       47.8060176470  TIP3      4697            0.0000000000
     38990      4897  TIP3      H1            -21.8622693007       19.1860094238       47.1241436951  TIP3      4697            0.0000000000
     38991      4897  TIP3      H2            -23.3206927668       19.0803477318       47.6265395862  TIP3      4697            0.0000000000
     38992      4898  TIP3      OH2           -20.8058458836       19.6815463067       45.8582376868  TIP3      4698            0.0000000000
     38993      4898  TIP3      H1            -20.1508431960       19.1276301144       45.3849553041  TIP3      4698            0.0000000000
     38994      4898  TIP3      H2            -20.2568535840       20.4848430440       46.0533073981  TIP3      4698            0.0000000000
     38995      4899  TIP3      OH2           -35.1258461366       18.7670413499       45.5923028786  TIP3      4699            0.0000000000
     38996      4899  TIP3      H1            -35.9815734729       18.5542727570       45.1371243536  TIP3      4699            0.0000000000
     38997      4899  TIP3      H2            -34.6346126555       17.9205595731       45.5221906102  TIP3      4699            0.0000000000
     38998      4900  TIP3      OH2           -36.1674749055       18.6921574739       41.7444137201  TIP3      4700            0.0000000000
     38999      4900  TIP3      H1            -36.1454503589       19.1607144449       40.8944944501  TIP3      4700            0.0000000000
     39000      4900  TIP3      H2            -36.5135052047       19.3884469878       42.3554490479  TIP3      4700            0.0000000000
     39001      4901  TIP3      OH2           -31.1196193673       18.3609737057       45.6662767661  TIP3      4701            0.0000000000
     39002      4901  TIP3      H1            -30.2786359449       18.6924145125       45.3288300212  TIP3      4701            0.0000000000
     39003      4901  TIP3      H2            -31.0309001975       18.3955373366       46.6248234084  TIP3      4701            0.0000000000
     39004      4902  TIP3      OH2           -24.9923151081       19.1320743018       46.9642768741  TIP3      4702            0.0000000000
     39005      4902  TIP3      H1            -25.1548349453       19.3390484966       46.0405241040  TIP3      4702            0.0000000000
     39006      4902  TIP3      H2            -25.5218632041       18.3215221703       47.1256500847  TIP3      4702            0.0000000000
     39007      4903  TIP3      OH2           -23.9818273512       19.1748719876       43.3224120054  TIP3      4703            0.0000000000
     39008      4903  TIP3      H1            -24.8007964677       19.7099802944       43.2548202612  TIP3      4703            0.0000000000
     39009      4903  TIP3      H2            -24.3413664530       18.2672450379       43.4125167773  TIP3      4703            0.0000000000
     39010      4904  TIP3      OH2           -36.6482711663       34.7488825641       42.6595044913  TIP3      4704            0.0000000000
     39011      4904  TIP3      H1            -37.5764091923       34.7224476624       42.3684463795  TIP3      4704            0.0000000000
     39012      4904  TIP3      H2            -36.3648024780       35.5906127787       42.2465006437  TIP3      4704            0.0000000000
     39013      4905  TIP3      OH2           -35.3715345492       20.5296783545       39.8979004073  TIP3      4705            0.0000000000
     39014      4905  TIP3      H1            -34.6518611677       20.0032554663       39.4922996622  TIP3      4705            0.0000000000
     39015      4905  TIP3      H2            -35.0127098741       20.7488784980       40.7750511466  TIP3      4705            0.0000000000
     39016      4906  TIP3      OH2           -29.8137236247       21.1703552154       42.1797654742  TIP3      4706            0.0000000000
     39017      4906  TIP3      H1            -29.4555596804       20.5495926855       42.8398711749  TIP3      4706            0.0000000000
     39018      4906  TIP3      H2            -29.5142290622       21.9941123363       42.6144652455  TIP3      4706            0.0000000000
     39019      4907  TIP3      OH2           -27.5799292519       36.1507679326       40.9112264916  TIP3      4707            0.0000000000
     39020      4907  TIP3      H1            -26.6431507250       35.9808172924       40.6716281204  TIP3      4707            0.0000000000
     39021      4907  TIP3      H2            -28.0272675725       35.6941006230       40.1649311675  TIP3      4707            0.0000000000
     39022      4908  TIP3      OH2           -21.1000485051       35.3107947019       43.4092077009  TIP3      4708            0.0000000000
     39023      4908  TIP3      H1            -21.4530478678       34.4697786493       43.0235449305  TIP3      4708            0.0000000000
     39024      4908  TIP3      H2            -21.2049273499       35.9202806713       42.6466983955  TIP3      4708            0.0000000000
     39025      4909  TIP3      OH2           -35.1104017779       35.2806188539       39.3326650203  TIP3      4709            0.0000000000
     39026      4909  TIP3      H1            -35.5304847481       35.8741945794       39.9885968083  TIP3      4709            0.0000000000
     39027      4909  TIP3      H2            -34.4395772889       34.8454051756       39.8789706958  TIP3      4709            0.0000000000
     39028      4910  TIP3      OH2            -7.3925582891       28.2761887535       45.4184957421  TIP3      4710            0.0000000000
     39029      4910  TIP3      H1             -7.4636506668       29.1932290862       45.7310954583  TIP3      4710            0.0000000000
     39030      4910  TIP3      H2             -8.2302229009       28.1780022683       44.9413827259  TIP3      4710            0.0000000000
     39031      4911  TIP3      OH2            -8.5533105313       27.2412397232       48.8402256141  TIP3      4711            0.0000000000
     39032      4911  TIP3      H1             -8.6520014244       26.8018538245       49.7043198049  TIP3      4711            0.0000000000
     39033      4911  TIP3      H2             -9.2250563344       26.7972429004       48.3060648913  TIP3      4711            0.0000000000
     39034      4912  TIP3      OH2            -5.5183776669       30.0404468808       47.2014274125  TIP3      4712            0.0000000000
     39035      4912  TIP3      H1             -5.7366891485       29.3381233052       47.8436366070  TIP3      4712            0.0000000000
     39036      4912  TIP3      H2             -5.1660759492       30.7275724333       47.8198051894  TIP3      4712            0.0000000000
     39037      4913  TIP3      OH2           -15.2618052161       31.6318538810       48.9000672486  TIP3      4713            0.0000000000
     39038      4913  TIP3      H1            -15.6277984612       30.7719543065       48.6091740334  TIP3      4713            0.0000000000
     39039      4913  TIP3      H2            -14.3077852803       31.4377090532       48.7820411359  TIP3      4713            0.0000000000
     39040      4914  TIP3      OH2           -18.5596734462       24.7080856549       44.8747722879  TIP3      4714            0.0000000000
     39041      4914  TIP3      H1            -18.6972017451       25.6274902084       45.1448380424  TIP3      4714            0.0000000000
     39042      4914  TIP3      H2            -19.3961641534       24.4898969838       44.4593273540  TIP3      4714            0.0000000000
     39043      4915  TIP3      OH2           -17.8114207881       27.2375564902       46.6295465655  TIP3      4715            0.0000000000
     39044      4915  TIP3      H1            -17.5358134730       26.4391185573       47.1273038386  TIP3      4715            0.0000000000
     39045      4915  TIP3      H2            -17.0868612348       27.8519280087       46.8181867462  TIP3      4715            0.0000000000
     39046      4916  TIP3      OH2            -7.8819765926       35.4938432748       47.9093256628  TIP3      4716            0.0000000000
     39047      4916  TIP3      H1             -7.1803855199       35.0450095367       47.3775143821  TIP3      4716            0.0000000000
     39048      4916  TIP3      H2             -8.2817227507       34.6987048911       48.3108610534  TIP3      4716            0.0000000000
     39049      4917  TIP3      OH2            -9.9157169763       30.2074632371       49.9615528770  TIP3      4717            0.0000000000
     39050      4917  TIP3      H1             -9.5437046841       29.6860593595       49.2385442134  TIP3      4717            0.0000000000
     39051      4917  TIP3      H2             -9.3649065993       29.9030234761       50.6919110331  TIP3      4717            0.0000000000
     39052      4918  TIP3      OH2            -7.0487433824       24.2361843572       49.8565487487  TIP3      4718            0.0000000000
     39053      4918  TIP3      H1             -6.7165341847       23.3247958266       49.9200478758  TIP3      4718            0.0000000000
     39054      4918  TIP3      H2             -7.1884109988       24.3203240343       48.8931608368  TIP3      4718            0.0000000000
     39055      4919  TIP3      OH2           -13.6002080457       21.8443044034       47.0160791744  TIP3      4719            0.0000000000
     39056      4919  TIP3      H1            -13.4604937666       22.7531001157       46.6635179776  TIP3      4719            0.0000000000
     39057      4919  TIP3      H2            -14.2896676321       21.5260917795       46.4057016783  TIP3      4719            0.0000000000
     39058      4920  TIP3      OH2            -6.5392061735       22.6012261317       45.5025196532  TIP3      4720            0.0000000000
     39059      4920  TIP3      H1             -5.9582495858       22.2157223314       46.2032073531  TIP3      4720            0.0000000000
     39060      4920  TIP3      H2             -5.9017411835       23.2075367108       45.0961142709  TIP3      4720            0.0000000000
     39061      4921  TIP3      OH2           -17.3496260386       24.5270077490       47.6773842665  TIP3      4721            0.0000000000
     39062      4921  TIP3      H1            -16.6947781663       23.9422289035       48.1163798738  TIP3      4721            0.0000000000
     39063      4921  TIP3      H2            -17.2298265337       24.2277923797       46.7497903998  TIP3      4721            0.0000000000
     39064      4922  TIP3      OH2           -12.3502592942       26.1862013681       47.1564188602  TIP3      4722            0.0000000000
     39065      4922  TIP3      H1            -11.6176696294       25.6864939524       47.5540076699  TIP3      4722            0.0000000000
     39066      4922  TIP3      H2            -12.8363143409       25.4576160697       46.7009422499  TIP3      4722            0.0000000000
     39067      4923  TIP3      OH2            -8.3276151770       30.7445316835       44.2319043485  TIP3      4723            0.0000000000
     39068      4923  TIP3      H1             -8.4464734851       30.6743889590       43.2663294051  TIP3      4723            0.0000000000
     39069      4923  TIP3      H2             -8.4073715242       31.7166478607       44.3588092650  TIP3      4723            0.0000000000
     39070      4924  TIP3      OH2            -4.7283539325       22.0277017206       47.2843536162  TIP3      4724            0.0000000000
     39071      4924  TIP3      H1             -5.3132549129       21.7435928638       48.0206832549  TIP3      4724            0.0000000000
     39072      4924  TIP3      H2             -3.8627045094       21.7633074832       47.6280998981  TIP3      4724            0.0000000000
     39073      4925  TIP3      OH2           -15.3035260961       23.3711277590       48.8854479905  TIP3      4725            0.0000000000
     39074      4925  TIP3      H1            -14.9573589883       24.2810431119       48.8074955395  TIP3      4725            0.0000000000
     39075      4925  TIP3      H2            -14.8688633973       22.9188063788       48.1455191405  TIP3      4725            0.0000000000
     39076      4926  TIP3      OH2           -18.0523920012       30.1782081572       42.6783650710  TIP3      4726            0.0000000000
     39077      4926  TIP3      H1            -18.1254961772       30.7090909840       41.8538511431  TIP3      4726            0.0000000000
     39078      4926  TIP3      H2            -17.9169073793       30.8703508010       43.3485467089  TIP3      4726            0.0000000000
     39079      4927  TIP3      OH2            -4.6160523674       31.7988094216       48.9644662209  TIP3      4727            0.0000000000
     39080      4927  TIP3      H1             -4.8930530013       31.3917925715       49.8154717762  TIP3      4727            0.0000000000
     39081      4927  TIP3      H2             -4.2094313519       32.6162908761       49.2764496976  TIP3      4727            0.0000000000
     39082      4928  TIP3      OH2           -11.0492107473       18.9291913412       48.1305633871  TIP3      4728            0.0000000000
     39083      4928  TIP3      H1            -10.7920845145       18.0181711208       48.3455286121  TIP3      4728            0.0000000000
     39084      4928  TIP3      H2            -11.8497029249       19.0885501863       48.6534995004  TIP3      4728            0.0000000000
     39085      4929  TIP3      OH2            -6.2083345335       34.1540655926       46.4287087141  TIP3      4729            0.0000000000
     39086      4929  TIP3      H1             -6.1424376500       33.2121745740       46.1944590125  TIP3      4729            0.0000000000
     39087      4929  TIP3      H2             -5.4194804941       34.4988652277       45.9406259859  TIP3      4729            0.0000000000
     39088      4930  TIP3      OH2            -5.0119465045       31.7787691195       45.1121997392  TIP3      4730            0.0000000000
     39089      4930  TIP3      H1             -5.1631940532       31.2133478194       44.3381756207  TIP3      4730            0.0000000000
     39090      4930  TIP3      H2             -5.0321951683       31.1228272195       45.8387153673  TIP3      4730            0.0000000000
     39091      4931  TIP3      OH2            -8.9323041941       27.4097216910       42.8568998257  TIP3      4731            0.0000000000
     39092      4931  TIP3      H1             -9.4508869513       28.1913060336       42.5519951324  TIP3      4731            0.0000000000
     39093      4931  TIP3      H2             -8.0439038809       27.5897126619       42.4765164485  TIP3      4731            0.0000000000
     39094      4932  TIP3      OH2            -8.6081474500       26.3723793229       39.8474970955  TIP3      4732            0.0000000000
     39095      4932  TIP3      H1             -7.9722357255       26.7605681756       40.4911124255  TIP3      4732            0.0000000000
     39096      4932  TIP3      H2             -8.4827558021       25.4236704240       40.0053479838  TIP3      4732            0.0000000000
     39097      4933  TIP3      OH2            -5.0966453308       27.5059037095       44.0208405760  TIP3      4733            0.0000000000
     39098      4933  TIP3      H1             -5.8656654062       27.7966252427       44.5651485628  TIP3      4733            0.0000000000
     39099      4933  TIP3      H2             -4.4612895156       27.2119358772       44.7074278435  TIP3      4733            0.0000000000
     39100      4934  TIP3      OH2           -13.7359070117       28.0473076451       45.8765028039  TIP3      4734            0.0000000000
     39101      4934  TIP3      H1            -14.1431266120       27.6130519525       45.0944030219  TIP3      4734            0.0000000000
     39102      4934  TIP3      H2            -13.1006448952       27.3674139077       46.1962961761  TIP3      4734            0.0000000000
     39103      4935  TIP3      OH2           -12.4658662706       31.6946951897       48.5636281950  TIP3      4735            0.0000000000
     39104      4935  TIP3      H1            -12.4082571063       31.7095615816       47.5917914091  TIP3      4735            0.0000000000
     39105      4935  TIP3      H2            -11.7337745434       31.1110715285       48.8229988005  TIP3      4735            0.0000000000
     39106      4936  TIP3      OH2           -13.8621328060       26.2857015004       49.4175872825  TIP3      4736            0.0000000000
     39107      4936  TIP3      H1            -13.3347471570       26.3129663696       48.5929738430  TIP3      4736            0.0000000000
     39108      4936  TIP3      H2            -13.6897449001       27.1797288547       49.7739898588  TIP3      4736            0.0000000000
     39109      4937  TIP3      OH2            -6.5528417142       27.1634870462       41.6262125431  TIP3      4737            0.0000000000
     39110      4937  TIP3      H1             -5.9778276666       27.3404545931       42.4041044172  TIP3      4737            0.0000000000
     39111      4937  TIP3      H2             -5.9712867355       27.4784595619       40.8862302381  TIP3      4737            0.0000000000
     39112      4938  TIP3      OH2            -8.6653603108       33.4614287654       44.6655363224  TIP3      4738            0.0000000000
     39113      4938  TIP3      H1             -8.4236818922       33.6749068251       45.5742440304  TIP3      4738            0.0000000000
     39114      4938  TIP3      H2             -9.3070081810       34.1481378589       44.4496848442  TIP3      4738            0.0000000000
     39115      4939  TIP3      OH2            -2.6169211977       18.2965964422       41.9528214723  TIP3      4739            0.0000000000
     39116      4939  TIP3      H1             -3.5147158865       18.4544748437       42.3189402492  TIP3      4739            0.0000000000
     39117      4939  TIP3      H2             -2.3012301182       19.2032138424       41.7738153935  TIP3      4739            0.0000000000
     39118      4940  TIP3      OH2           -15.1703361967       27.0531781125       43.6212225674  TIP3      4740            0.0000000000
     39119      4940  TIP3      H1            -15.2948785341       27.9070103832       43.1518007833  TIP3      4740            0.0000000000
     39120      4940  TIP3      H2            -15.4734392021       26.4144332143       42.9677124117  TIP3      4740            0.0000000000
     39121      4941  TIP3      OH2            -1.5746189926       32.7286238172       40.2872603789  TIP3      4741            0.0000000000
     39122      4941  TIP3      H1             -1.2402628376       33.6508861336       40.2353633066  TIP3      4741            0.0000000000
     39123      4941  TIP3      H2             -0.7459226393       32.2049531708       40.3145702686  TIP3      4741            0.0000000000
     39124      4942  TIP3      OH2           -18.6039707256       32.4420067934       48.7181649725  TIP3      4742            0.0000000000
     39125      4942  TIP3      H1            -17.6680454321       32.1918327121       48.6973109995  TIP3      4742            0.0000000000
     39126      4942  TIP3      H2            -18.5939692134       33.3090765288       49.1712612582  TIP3      4742            0.0000000000
     39127      4943  TIP3      OH2            -9.0003586801       36.7051686095       43.5221972822  TIP3      4743            0.0000000000
     39128      4943  TIP3      H1             -8.9328106274       36.6821188308       42.5390113483  TIP3      4743            0.0000000000
     39129      4943  TIP3      H2             -9.4133873579       37.5674596761       43.6580447610  TIP3      4743            0.0000000000
     39130      4944  TIP3      OH2           -15.4244766418       34.8049474867       45.1076756861  TIP3      4744            0.0000000000
     39131      4944  TIP3      H1            -15.2063646733       34.8505472748       46.0651180768  TIP3      4744            0.0000000000
     39132      4944  TIP3      H2            -16.0438757512       34.0419645159       45.1025031793  TIP3      4744            0.0000000000
     39133      4945  TIP3      OH2            -6.1589191177       35.4601631343       40.8738552311  TIP3      4745            0.0000000000
     39134      4945  TIP3      H1             -5.4565179584       34.8713368832       40.5097027910  TIP3      4745            0.0000000000
     39135      4945  TIP3      H2             -6.1489331753       35.2294800639       41.8292685850  TIP3      4745            0.0000000000
     39136      4946  TIP3      OH2            -6.6394038495       35.3832711236       43.4237036576  TIP3      4746            0.0000000000
     39137      4946  TIP3      H1             -7.5399548142       35.7196650853       43.6308578631  TIP3      4746            0.0000000000
     39138      4946  TIP3      H2             -6.5515687448       34.5976738588       43.9830828308  TIP3      4746            0.0000000000
     39139      4947  TIP3      OH2           -14.0587052787       19.5174025491       49.4374167484  TIP3      4747            0.0000000000
     39140      4947  TIP3      H1            -14.5442699625       19.8434847229       48.6406879236  TIP3      4747            0.0000000000
     39141      4947  TIP3      H2            -13.5801949712       20.3429443230       49.7023676657  TIP3      4747            0.0000000000
     39142      4948  TIP3      OH2            -4.9271175055       28.1449344424       39.8311004363  TIP3      4748            0.0000000000
     39143      4948  TIP3      H1             -5.1187816881       28.2838760102       38.8796444264  TIP3      4748            0.0000000000
     39144      4948  TIP3      H2             -3.9644449739       28.3248673069       39.8375132350  TIP3      4748            0.0000000000
     39145      4949  TIP3      OH2            -9.3040240710       21.8116233643       40.1251883683  TIP3      4749            0.0000000000
     39146      4949  TIP3      H1             -9.7493500672       21.6704130509       40.9785410670  TIP3      4749            0.0000000000
     39147      4949  TIP3      H2             -9.8021274809       21.1881903683       39.5812537639  TIP3      4749            0.0000000000
     39148      4950  TIP3      OH2           -13.6587866092       24.2322740565       45.8715814803  TIP3      4750            0.0000000000
     39149      4950  TIP3      H1            -14.6057760959       24.0399150900       45.6574392649  TIP3      4750            0.0000000000
     39150      4950  TIP3      H2            -13.2970689350       24.3265865810       44.9584776174  TIP3      4750            0.0000000000
     39151      4951  TIP3      OH2            -8.0270405665       25.2548508998       44.0645725758  TIP3      4751            0.0000000000
     39152      4951  TIP3      H1             -8.3415332433       26.0603482447       43.5818231082  TIP3      4751            0.0000000000
     39153      4951  TIP3      H2             -7.4395870974       24.8795959341       43.3823752245  TIP3      4751            0.0000000000
     39154      4952  TIP3      OH2            -7.3261367003       24.7472651380       47.0558957609  TIP3      4752            0.0000000000
     39155      4952  TIP3      H1             -7.4643561285       25.4340325148       46.3726224561  TIP3      4752            0.0000000000
     39156      4952  TIP3      H2             -7.2351307795       23.9712599306       46.4635404744  TIP3      4752            0.0000000000
     39157      4953  TIP3      OH2           -12.9295463300       22.0531446919       39.1429409046  TIP3      4753            0.0000000000
     39158      4953  TIP3      H1            -13.3624534408       21.6972612300       39.9557018207  TIP3      4753            0.0000000000
     39159      4953  TIP3      H2            -13.6308310524       22.5953270590       38.7446849172  TIP3      4753            0.0000000000
     39160      4954  TIP3      OH2           -19.4243783696       21.9419511066       46.4241602906  TIP3      4754            0.0000000000
     39161      4954  TIP3      H1            -18.8418208568       21.9361077741       47.2131516514  TIP3      4754            0.0000000000
     39162      4954  TIP3      H2            -18.8318093366       22.2335657696       45.7160970164  TIP3      4754            0.0000000000
     39163      4955  TIP3      OH2           -18.3117770663       22.4492723680       41.3884985364  TIP3      4755            0.0000000000
     39164      4955  TIP3      H1            -17.6742279849       22.8844370770       40.7767411922  TIP3      4755            0.0000000000
     39165      4955  TIP3      H2            -18.9296484396       23.1968778701       41.5492722462  TIP3      4755            0.0000000000
     39166      4956  TIP3      OH2           -10.6001156459       22.1203844230       46.3823025654  TIP3      4756            0.0000000000
     39167      4956  TIP3      H1            -11.4963398371       21.9711590081       46.7241626858  TIP3      4756            0.0000000000
     39168      4956  TIP3      H2            -10.0503737084       21.5653012416       46.9873103469  TIP3      4756            0.0000000000
     39169      4957  TIP3      OH2           -16.2906684859       23.5524078954       45.4176264534  TIP3      4757            0.0000000000
     39170      4957  TIP3      H1            -17.0780709446       23.9311002528       44.9659837674  TIP3      4757            0.0000000000
     39171      4957  TIP3      H2            -16.1054175849       22.7545907808       44.8708727019  TIP3      4757            0.0000000000
     39172      4958  TIP3      OH2           -12.8132398026       24.0173259833       43.2756400968  TIP3      4758            0.0000000000
     39173      4958  TIP3      H1            -11.9116783860       23.8209601000       42.9908365954  TIP3      4758            0.0000000000
     39174      4958  TIP3      H2            -13.1737104512       24.5290554913       42.5320159032  TIP3      4758            0.0000000000
     39175      4959  TIP3      OH2            -6.7256144549       21.5595103249       49.2442059558  TIP3      4759            0.0000000000
     39176      4959  TIP3      H1             -6.9232877417       21.4902923193       50.1975285544  TIP3      4759            0.0000000000
     39177      4959  TIP3      H2             -7.6213139563       21.5470550228       48.8713066664  TIP3      4759            0.0000000000
     39178      4960  TIP3      OH2           -13.9420977343       25.0312018348       40.4178272712  TIP3      4760            0.0000000000
     39179      4960  TIP3      H1            -14.2806457323       24.5304332335       39.6555452266  TIP3      4760            0.0000000000
     39180      4960  TIP3      H2            -13.0835393224       25.2979337192       40.0382009428  TIP3      4760            0.0000000000
     39181      4961  TIP3      OH2            -9.9764753829       24.7989984417       48.4614286728  TIP3      4761            0.0000000000
     39182      4961  TIP3      H1             -9.4549968354       24.5121086728       47.6853107584  TIP3      4761            0.0000000000
     39183      4961  TIP3      H2             -9.5680906839       24.2843134478       49.1707375499  TIP3      4761            0.0000000000
     39184      4962  TIP3      OH2           -15.5365205165       21.1451195086       44.8575402412  TIP3      4762            0.0000000000
     39185      4962  TIP3      H1            -16.0118334900       20.4219914512       45.3338012139  TIP3      4762            0.0000000000
     39186      4962  TIP3      H2            -14.9952284226       20.6218528762       44.2616924292  TIP3      4762            0.0000000000
     39187      4963  TIP3      OH2           -10.5432332228       29.5226291633       42.5133313596  TIP3      4763            0.0000000000
     39188      4963  TIP3      H1            -11.3152430017       29.0759742782       42.1047389803  TIP3      4763            0.0000000000
     39189      4963  TIP3      H2            -10.9264167401       29.7446163268       43.3979491573  TIP3      4763            0.0000000000
     39190      4964  TIP3      OH2            -6.7950817552       22.2860317612       40.7176278189  TIP3      4764            0.0000000000
     39191      4964  TIP3      H1             -7.7678964444       22.2980741707       40.5543212126  TIP3      4764            0.0000000000
     39192      4964  TIP3      H2             -6.6189276832       23.2156199772       40.9656638333  TIP3      4764            0.0000000000
     39193      4965  TIP3      OH2            -6.0964632723       24.5003166706       41.9675823911  TIP3      4765            0.0000000000
     39194      4965  TIP3      H1             -5.3812465881       24.2155324314       42.5683779202  TIP3      4765            0.0000000000
     39195      4965  TIP3      H2             -5.8405424377       25.4158696408       41.7720584348  TIP3      4765            0.0000000000
     39196      4966  TIP3      OH2           -15.7696570636       29.0356649689       48.1046814350  TIP3      4766            0.0000000000
     39197      4966  TIP3      H1            -15.4794398740       28.8404053416       47.1920300386  TIP3      4766            0.0000000000
     39198      4966  TIP3      H2            -15.1112795323       28.5811714501       48.6482913302  TIP3      4766            0.0000000000
     39199      4967  TIP3      OH2            -8.5789281906       31.0190214020       41.5272705729  TIP3      4767            0.0000000000
     39200      4967  TIP3      H1             -9.1395922371       31.8301730459       41.5337867087  TIP3      4767            0.0000000000
     39201      4967  TIP3      H2             -9.2408255010       30.3603776817       41.8413266779  TIP3      4767            0.0000000000
     39202      4968  TIP3      OH2            -1.3852501005       24.1802045598       41.9954861215  TIP3      4768            0.0000000000
     39203      4968  TIP3      H1             -1.8771583384       24.1261408162       41.1535293042  TIP3      4768            0.0000000000
     39204      4968  TIP3      H2             -1.1160734988       25.1156260511       42.0287904197  TIP3      4768            0.0000000000
     39205      4969  TIP3      OH2            -3.1127107311       33.0171797019       42.4462770180  TIP3      4769            0.0000000000
     39206      4969  TIP3      H1             -3.3556348203       32.2125260013       42.9239400640  TIP3      4769            0.0000000000
     39207      4969  TIP3      H2             -2.5680827765       32.6758338740       41.7063909983  TIP3      4769            0.0000000000
     39208      4970  TIP3      OH2            -5.9095792169       28.0437116817       48.9638085709  TIP3      4770            0.0000000000
     39209      4970  TIP3      H1             -6.8517339583       27.7859646245       48.8168553505  TIP3      4770            0.0000000000
     39210      4970  TIP3      H2             -5.4105352415       27.3867911630       48.4341301479  TIP3      4770            0.0000000000
     39211      4971  TIP3      OH2           -13.2231218153       32.3122692318       45.7225268717  TIP3      4771            0.0000000000
     39212      4971  TIP3      H1            -12.8043225242       33.1967015447       45.7294291931  TIP3      4771            0.0000000000
     39213      4971  TIP3      H2            -13.9361732565       32.4552316948       45.0826026315  TIP3      4771            0.0000000000
     39214      4972  TIP3      OH2           -16.9436141440       27.5458819487       40.3506407033  TIP3      4772            0.0000000000
     39215      4972  TIP3      H1            -16.4887454198       28.1140296155       41.0073269227  TIP3      4772            0.0000000000
     39216      4972  TIP3      H2            -17.8941550573       27.6487355508       40.5584677980  TIP3      4772            0.0000000000
     39217      4973  TIP3      OH2           -12.0024686005       29.8828548713       44.7427503872  TIP3      4773            0.0000000000
     39218      4973  TIP3      H1            -12.3522216779       30.7439662365       45.0425663484  TIP3      4773            0.0000000000
     39219      4973  TIP3      H2            -12.3685432416       29.2805560869       45.4163357406  TIP3      4773            0.0000000000
     39220      4974  TIP3      OH2           -12.7454026127       34.7901470158       44.4623246778  TIP3      4774            0.0000000000
     39221      4974  TIP3      H1            -13.7102071129       34.9197294802       44.5716007893  TIP3      4774            0.0000000000
     39222      4974  TIP3      H2            -12.3654322292       35.5571267140       44.9512525063  TIP3      4774            0.0000000000
     39223      4975  TIP3      OH2            -5.1950379062       31.2839429342       40.2594561641  TIP3      4775            0.0000000000
     39224      4975  TIP3      H1             -5.0609620328       30.8008553980       41.1075540536  TIP3      4775            0.0000000000
     39225      4975  TIP3      H2             -6.1635296909       31.2296572374       40.2134037501  TIP3      4775            0.0000000000
     39226      4976  TIP3      OH2            -0.8196449531       35.3363914542       40.3899777262  TIP3      4776            0.0000000000
     39227      4976  TIP3      H1             -0.1811052727       36.0737691680       40.4072184509  TIP3      4776            0.0000000000
     39228      4976  TIP3      H2             -1.6562779693       35.7923266447       40.6653044588  TIP3      4776            0.0000000000
     39229      4977  TIP3      OH2            -4.5372531850       29.9039752416       42.5707059903  TIP3      4777            0.0000000000
     39230      4977  TIP3      H1             -4.8390593919       29.0392049285       42.9014031611  TIP3      4777            0.0000000000
     39231      4977  TIP3      H2             -3.5818968333       29.7300717543       42.4428187834  TIP3      4777            0.0000000000
     39232      4978  TIP3      OH2           -11.0839509089       32.3291368348       38.9304975302  TIP3      4778            0.0000000000
     39233      4978  TIP3      H1            -11.3391948380       31.7917574398       38.1638294089  TIP3      4778            0.0000000000
     39234      4978  TIP3      H2            -11.8682756133       32.2347935560       39.5105916253  TIP3      4778            0.0000000000
     39235      4979  TIP3      OH2           -12.6314759319       31.8442228789       41.3404679065  TIP3      4779            0.0000000000
     39236      4979  TIP3      H1            -11.8467813414       31.4532332277       41.7423060734  TIP3      4779            0.0000000000
     39237      4979  TIP3      H2            -12.5013027370       32.7841984375       41.6184422514  TIP3      4779            0.0000000000
     39238      4980  TIP3      OH2           -15.6390637056       29.1818314572       41.9424972507  TIP3      4780            0.0000000000
     39239      4980  TIP3      H1            -16.5329430635       29.5213978562       42.1724543612  TIP3      4780            0.0000000000
     39240      4980  TIP3      H2            -15.2530346111       29.9178424628       41.4380989080  TIP3      4780            0.0000000000
     39241      4981  TIP3      OH2            -7.3793426462       21.3388891250       43.2889486480  TIP3      4781            0.0000000000
     39242      4981  TIP3      H1             -6.8478085286       21.6665004538       42.5464962354  TIP3      4781            0.0000000000
     39243      4981  TIP3      H2             -6.9739277686       21.7658186392       44.0665202574  TIP3      4781            0.0000000000
     39244      4982  TIP3      OH2            -9.9566610956       33.2004337387       41.9754312740  TIP3      4782            0.0000000000
     39245      4982  TIP3      H1            -10.8355844181       33.6172836075       42.1159053140  TIP3      4782            0.0000000000
     39246      4982  TIP3      H2             -9.3674733465       33.9555201015       42.0530609555  TIP3      4782            0.0000000000
     39247      4983  TIP3      OH2           -10.0510078430       23.1799441644       43.9230028976  TIP3      4783            0.0000000000
     39248      4983  TIP3      H1             -9.4738166014       23.9660382439       44.0358995444  TIP3      4783            0.0000000000
     39249      4983  TIP3      H2            -10.1247905646       22.7969136396       44.8271402704  TIP3      4783            0.0000000000
     39250      4984  TIP3      OH2            -9.5441764244       20.1034117342       44.3570902457  TIP3      4784            0.0000000000
     39251      4984  TIP3      H1             -9.7722384551       20.6788951678       45.1003700503  TIP3      4784            0.0000000000
     39252      4984  TIP3      H2             -8.7398050265       20.5844310239       44.0352394538  TIP3      4784            0.0000000000
     39253      4985  TIP3      OH2           -12.3320548154       34.3923648985       41.8579585037  TIP3      4785            0.0000000000
     39254      4985  TIP3      H1            -12.3236888189       35.1734617724       41.2554044074  TIP3      4785            0.0000000000
     39255      4985  TIP3      H2            -12.5852403043       34.7621088553       42.7329770972  TIP3      4785            0.0000000000
     39256      4986  TIP3      OH2           -13.7769606710       21.1603736856       41.5909174775  TIP3      4786            0.0000000000
     39257      4986  TIP3      H1            -13.8776609648       21.8673617611       42.2478116916  TIP3      4786            0.0000000000
     39258      4986  TIP3      H2            -12.8416583413       20.9055578258       41.7261687652  TIP3      4786            0.0000000000
     39259      4987  TIP3      OH2            -4.8364584954       25.9698476957       47.5934218736  TIP3      4787            0.0000000000
     39260      4987  TIP3      H1             -5.6331499787       25.4451277744       47.7682751790  TIP3      4787            0.0000000000
     39261      4987  TIP3      H2             -4.1980746319       25.5066302938       48.1867617853  TIP3      4787            0.0000000000
     39262      4988  TIP3      OH2           -15.4734621349       31.5481860320       40.2441287557  TIP3      4788            0.0000000000
     39263      4988  TIP3      H1            -14.8623785367       32.1183711673       40.7504902594  TIP3      4788            0.0000000000
     39264      4988  TIP3      H2            -14.8072066304       31.0367696074       39.7279600409  TIP3      4788            0.0000000000
     39265      4989  TIP3      OH2           -17.1068991368       24.5259136623       39.6704254058  TIP3      4789            0.0000000000
     39266      4989  TIP3      H1            -16.5640024322       25.2486825871       40.0275481547  TIP3      4789            0.0000000000
     39267      4989  TIP3      H2            -17.9179208944       25.0105692041       39.4460166408  TIP3      4789            0.0000000000
     39268      4990  TIP3      OH2            -3.4320091496       35.3608489495       49.5942545892  TIP3      4790            0.0000000000
     39269      4990  TIP3      H1             -3.2205529479       35.8296626564       48.7762183803  TIP3      4790            0.0000000000
     39270      4990  TIP3      H2             -2.5625113790       35.2722376593       50.0009892529  TIP3      4790            0.0000000000
     39271      4991  TIP3      OH2           -16.2799634613       19.4990814885       47.9284178441  TIP3      4791            0.0000000000
     39272      4991  TIP3      H1            -16.3264064742       19.1616907964       47.0025833683  TIP3      4791            0.0000000000
     39273      4991  TIP3      H2            -16.3885422253       18.6555906023       48.4208134160  TIP3      4791            0.0000000000
     39274      4992  TIP3      OH2           -17.5905451414       32.9251764225       44.3813302949  TIP3      4792            0.0000000000
     39275      4992  TIP3      H1            -18.3283021017       33.4084841412       44.7816370831  TIP3      4792            0.0000000000
     39276      4992  TIP3      H2            -17.5433342168       33.4263726737       43.5351172674  TIP3      4792            0.0000000000
     39277      4993  TIP3      OH2            -9.1873671713       34.3177983446       38.8632103630  TIP3      4793            0.0000000000
     39278      4993  TIP3      H1             -9.6674543684       33.4834345697       39.0665933053  TIP3      4793            0.0000000000
     39279      4993  TIP3      H2             -8.4053437296       33.9791328082       38.3865632592  TIP3      4793            0.0000000000
     39280      4994  TIP3      OH2            -4.5283904443       33.9828675285       39.3681326347  TIP3      4794            0.0000000000
     39281      4994  TIP3      H1             -4.3918702503       33.0988692772       39.7476360226  TIP3      4794            0.0000000000
     39282      4994  TIP3      H2             -3.8170963961       34.0571062327       38.7056475167  TIP3      4794            0.0000000000
     39283      4995  TIP3      OH2           -13.7169363315       29.8171467118       38.7952033485  TIP3      4795            0.0000000000
     39284      4995  TIP3      H1            -13.4924183095       29.3083334171       39.5886826241  TIP3      4795            0.0000000000
     39285      4995  TIP3      H2            -12.8638367510       29.7517756654       38.3008276096  TIP3      4795            0.0000000000
     39286      4996  TIP3      OH2            -8.1070034232       30.9804254348       38.5828482358  TIP3      4796            0.0000000000
     39287      4996  TIP3      H1             -8.6073439621       30.9827713646       39.4109139042  TIP3      4796            0.0000000000
     39288      4996  TIP3      H2             -8.1146896466       30.0138679361       38.3779555819  TIP3      4796            0.0000000000
     39289      4997  TIP3      OH2           -12.5735186198       28.0724936872       41.3749102416  TIP3      4797            0.0000000000
     39290      4997  TIP3      H1            -13.2756235755       27.5296944088       41.7554822341  TIP3      4797            0.0000000000
     39291      4997  TIP3      H2            -12.1632262090       27.4628097100       40.7263312495  TIP3      4797            0.0000000000
     39292      4998  TIP3      OH2           -11.3538449427       26.3434982796       39.3416989422  TIP3      4798            0.0000000000
     39293      4998  TIP3      H1            -11.4431334602       26.5814577044       38.3934045938  TIP3      4798            0.0000000000
     39294      4998  TIP3      H2            -10.3698464773       26.3253432973       39.4169429821  TIP3      4798            0.0000000000
     39295      4999  TIP3      OH2            -2.2169808538       28.4892153234       38.8529348559  TIP3      4799            0.0000000000
     39296      4999  TIP3      H1             -2.4132999363       28.1833594483       37.9441188418  TIP3      4799            0.0000000000
     39297      4999  TIP3      H2             -2.2798433943       29.4680197811       38.7533505149  TIP3      4799            0.0000000000
     39298      5000  TIP3      OH2           -11.7153670603       36.6197987559       40.4825308414  TIP3      4800            0.0000000000
     39299      5000  TIP3      H1            -10.9169125136       37.1343441030       40.6944851863  TIP3      4800            0.0000000000
     39300      5000  TIP3      H2            -12.2059242739       37.2386053825       39.9315322533  TIP3      4800            0.0000000000
     39301      5001  TIP3      OH2           -18.1706623758       31.1648446561       40.2245362208  TIP3      4801            0.0000000000
     39302      5001  TIP3      H1            -17.1892442162       31.2375550128       40.1316320971  TIP3      4801            0.0000000000
     39303      5001  TIP3      H2            -18.4296407004       30.7271640214       39.3830659541  TIP3      4801            0.0000000000
     39304      5002  TIP3      OH2           -19.3672532663       36.8210913131       44.6875043029  TIP3      4802            0.0000000000
     39305      5002  TIP3      H1            -20.1260451727       36.3700233258       44.2631603577  TIP3      4802            0.0000000000
     39306      5002  TIP3      H2            -19.4411697288       36.4083618154       45.5635597263  TIP3      4802            0.0000000000
     39307      5003  TIP3      OH2           -18.6055862369       34.6991442421       46.6748285506  TIP3      4803            0.0000000000
     39308      5003  TIP3      H1            -18.9193623441       33.8211484660       46.9500604888  TIP3      4803            0.0000000000
     39309      5003  TIP3      H2            -18.1275169139       34.9917409458       47.4734215247  TIP3      4803            0.0000000000
     39310      5004  TIP3      OH2            -1.8426330932       29.3243137889       42.5122795932  TIP3      4804            0.0000000000
     39311      5004  TIP3      H1             -0.9631319051       29.7321067098       42.6764365841  TIP3      4804            0.0000000000
     39312      5004  TIP3      H2             -1.9111495451       28.6986844332       43.2735654139  TIP3      4804            0.0000000000
     39313      5005  TIP3      OH2            -1.5673828820       27.6881203593       44.7818279168  TIP3      4805            0.0000000000
     39314      5005  TIP3      H1             -2.2322299494       27.1052601626       45.2162786088  TIP3      4805            0.0000000000
     39315      5005  TIP3      H2             -0.8413378489       27.6749481401       45.4306361927  TIP3      4805            0.0000000000
     39316      5006  TIP3      OH2            -1.4246265949       30.4027790743       49.7409845374  TIP3      4806            0.0000000000
     39317      5006  TIP3      H1             -0.7040025953       29.8046781676       49.4668238055  TIP3      4806            0.0000000000
     39318      5006  TIP3      H2             -1.3269817379       31.1472680637       49.1299020790  TIP3      4806            0.0000000000
     39319      5007  TIP3      OH2            -0.8107235846       27.2348538463       40.9480957624  TIP3      4807            0.0000000000
     39320      5007  TIP3      H1             -1.4736104216       27.3736005115       40.2413655762  TIP3      4807            0.0000000000
     39321      5007  TIP3      H2             -0.9668769233       28.0130276918       41.5165822731  TIP3      4807            0.0000000000
     39322      5008  TIP3      OH2            -2.9446153759       24.2968010430       39.4387594531  TIP3      4808            0.0000000000
     39323      5008  TIP3      H1             -2.6234082328       24.7435684956       38.6510986888  TIP3      4808            0.0000000000
     39324      5008  TIP3      H2             -3.1974236006       23.4518131254       39.0204948114  TIP3      4808            0.0000000000
     39325      5009  TIP3      OH2            -3.3511340008       25.7730029241       45.4197635443  TIP3      4809            0.0000000000
     39326      5009  TIP3      H1             -3.6312352958       24.9277294583       45.0270892453  TIP3      4809            0.0000000000
     39327      5009  TIP3      H2             -3.8321830408       25.7664068937       46.2831953594  TIP3      4809            0.0000000000
     39328      5010  TIP3      OH2           -18.8607638446       28.1509694863       48.9752948938  TIP3      4810            0.0000000000
     39329      5010  TIP3      H1            -18.4405766475       27.9753578310       48.1144186955  TIP3      4810            0.0000000000
     39330      5010  TIP3      H2            -18.1036078611       28.0110861012       49.5781795058  TIP3      4810            0.0000000000
     39331      5011  TIP3      OH2            -3.2324329651       21.6933122116       38.5619236765  TIP3      4811            0.0000000000
     39332      5011  TIP3      H1             -2.8690465244       21.4244761640       39.4390585207  TIP3      4811            0.0000000000
     39333      5011  TIP3      H2             -4.1899773290       21.6498089615       38.7012925257  TIP3      4811            0.0000000000
     39334      5012  TIP3      OH2            -4.0661549323       23.5989758579       43.6403831519  TIP3      4812            0.0000000000
     39335      5012  TIP3      H1             -3.9520611725       22.6372908760       43.8209114913  TIP3      4812            0.0000000000
     39336      5012  TIP3      H2             -3.2096088720       23.7790435730       43.2154035926  TIP3      4812            0.0000000000
     39337      5013  TIP3      OH2            -3.2241796929       24.3134934588       48.8122605977  TIP3      4813            0.0000000000
     39338      5013  TIP3      H1             -2.2532814433       24.2619084768       48.7612481940  TIP3      4813            0.0000000000
     39339      5013  TIP3      H2             -3.4186135138       23.4049916886       49.1578773645  TIP3      4813            0.0000000000
     39340      5014  TIP3      OH2            -3.3112808656       21.0100238381       43.8174979335  TIP3      4814            0.0000000000
     39341      5014  TIP3      H1             -2.8751441643       20.5816037027       44.5808506506  TIP3      4814            0.0000000000
     39342      5014  TIP3      H2             -3.8804875004       20.2761753375       43.5113157550  TIP3      4814            0.0000000000
     39343      5015  TIP3      OH2           -17.7619257794       21.6429222480       48.7208959670  TIP3      4815            0.0000000000
     39344      5015  TIP3      H1            -17.2342698868       20.8438543859       48.4681967152  TIP3      4815            0.0000000000
     39345      5015  TIP3      H2            -17.1219555581       22.1836980803       49.2167069766  TIP3      4815            0.0000000000
     39346      5016  TIP3      OH2           -19.3777027103       24.4190957532       49.7344318983  TIP3      4816            0.0000000000
     39347      5016  TIP3      H1            -18.9227168477       24.1140677741       48.9260452376  TIP3      4816            0.0000000000
     39348      5016  TIP3      H2            -19.0970319171       25.3409992281       49.7567668102  TIP3      4816            0.0000000000
     39349      5017  TIP3      OH2            -1.4331294201       20.8581564698       40.5877453322  TIP3      4817            0.0000000000
     39350      5017  TIP3      H1             -1.0530035790       20.3276850546       39.8586662621  TIP3      4817            0.0000000000
     39351      5017  TIP3      H2             -0.6250059305       21.0667929068       41.1024394666  TIP3      4817            0.0000000000
     39352      5018  TIP3      OH2           -19.1472661807       20.7094383304       43.3080122287  TIP3      4818            0.0000000000
     39353      5018  TIP3      H1            -20.0045183485       21.0908158108       43.5233295516  TIP3      4818            0.0000000000
     39354      5018  TIP3      H2            -18.8112809918       21.3858056170       42.6948529325  TIP3      4818            0.0000000000
     39355      5019  TIP3      OH2            -4.3239810801       35.5257326370       45.1117473819  TIP3      4819            0.0000000000
     39356      5019  TIP3      H1             -3.4889941132       35.4153562215       44.5949403548  TIP3      4819            0.0000000000
     39357      5019  TIP3      H2             -4.0975465131       36.2395732400       45.7292375045  TIP3      4819            0.0000000000
     39358      5020  TIP3      OH2           -16.9861108538       34.8700247543       48.9939967479  TIP3      4820            0.0000000000
     39359      5020  TIP3      H1            -16.4570016931       35.4088928411       49.6243937303  TIP3      4820            0.0000000000
     39360      5020  TIP3      H2            -16.2707864818       34.4895922075       48.4273521900  TIP3      4820            0.0000000000
     39361      5021  TIP3      OH2           -14.8740494530       34.1814926127       47.5985900378  TIP3      4821            0.0000000000
     39362      5021  TIP3      H1            -14.7712811207       33.2223933501       47.7652944899  TIP3      4821            0.0000000000
     39363      5021  TIP3      H2            -14.0753464185       34.5126914223       48.0710787806  TIP3      4821            0.0000000000
     39364      5022  TIP3      OH2           -12.5089866007       34.3477856990       48.6848576723  TIP3      4822            0.0000000000
     39365      5022  TIP3      H1            -12.2783742119       33.3957633212       48.7804613100  TIP3      4822            0.0000000000
     39366      5022  TIP3      H2            -12.4673347425       34.6801889499       49.5881412146  TIP3      4822            0.0000000000
     39367      5023  TIP3      OH2            -8.9245735521       20.7229237641       47.8997443362  TIP3      4823            0.0000000000
     39368      5023  TIP3      H1             -9.6057548260       20.0649932504       48.1322391098  TIP3      4823            0.0000000000
     39369      5023  TIP3      H2             -8.1401815093       20.1496639105       47.8780566205  TIP3      4823            0.0000000000
     39370      5024  TIP3      OH2            -3.5091834227       18.8223552708       47.8695721450  TIP3      4824            0.0000000000
     39371      5024  TIP3      H1             -2.9998886988       19.2175189143       47.1098738404  TIP3      4824            0.0000000000
     39372      5024  TIP3      H2             -4.4190967857       19.1251132387       47.6938164348  TIP3      4824            0.0000000000
     39373      5025  TIP3      OH2            -2.0166475702       19.7415275742       45.8843658134  TIP3      4825            0.0000000000
     39374      5025  TIP3      H1             -1.3279601856       19.1769499702       45.4675353104  TIP3      4825            0.0000000000
     39375      5025  TIP3      H2             -1.4839516089       20.5664252723       46.0379369967  TIP3      4825            0.0000000000
     39376      5026  TIP3      OH2           -16.4556589370       18.6591747143       45.4280561164  TIP3      4826            0.0000000000
     39377      5026  TIP3      H1            -17.3068089044       18.5662702856       44.9540051470  TIP3      4826            0.0000000000
     39378      5026  TIP3      H2            -16.0842352962       17.7556617217       45.3038698867  TIP3      4826            0.0000000000
     39379      5027  TIP3      OH2           -17.8157995547       18.7892261182       41.3820729525  TIP3      4827            0.0000000000
     39380      5027  TIP3      H1            -17.5177887178       19.4518742884       40.7328565212  TIP3      4827            0.0000000000
     39381      5027  TIP3      H2            -18.3250035168       19.3237905612       42.0209886656  TIP3      4827            0.0000000000
     39382      5028  TIP3      OH2           -12.1027927819       18.4462716164       45.5991469451  TIP3      4828            0.0000000000
     39383      5028  TIP3      H1            -11.6362807505       18.7666561049       44.8200446803  TIP3      4828            0.0000000000
     39384      5028  TIP3      H2            -11.5845772587       18.8403594521       46.3173925732  TIP3      4828            0.0000000000
     39385      5029  TIP3      OH2            -6.1650318129       19.1120281428       46.9895177294  TIP3      4829            0.0000000000
     39386      5029  TIP3      H1             -6.4366383715       19.3422395018       46.0985520250  TIP3      4829            0.0000000000
     39387      5029  TIP3      H2             -6.6470475137       18.2748683993       47.1635914016  TIP3      4829            0.0000000000
     39388      5030  TIP3      OH2            -4.9136067629       18.9754503687       43.1440871308  TIP3      4830            0.0000000000
     39389      5030  TIP3      H1             -5.5274307191       19.2113778464       42.4410323819  TIP3      4830            0.0000000000
     39390      5030  TIP3      H2             -5.2939695830       18.1279996705       43.4557005558  TIP3      4830            0.0000000000
     39391      5031  TIP3      OH2           -17.8747507810       34.6133762558       42.3888693114  TIP3      4831            0.0000000000
     39392      5031  TIP3      H1            -18.7986619522       34.7192892035       42.1072850026  TIP3      4831            0.0000000000
     39393      5031  TIP3      H2            -17.4956549361       35.3879799338       41.9185439483  TIP3      4831            0.0000000000
     39394      5032  TIP3      OH2           -16.4646705632       20.6824995188       39.8052463414  TIP3      4832            0.0000000000
     39395      5032  TIP3      H1            -15.7787861303       20.1532137437       39.3566767686  TIP3      4832            0.0000000000
     39396      5032  TIP3      H2            -16.1566480692       20.6271175272       40.7236486889  TIP3      4832            0.0000000000
     39397      5033  TIP3      OH2           -11.0059738518       21.1760952657       42.2382578130  TIP3      4833            0.0000000000
     39398      5033  TIP3      H1            -10.6489778376       20.5229029591       42.8684386477  TIP3      4833            0.0000000000
     39399      5033  TIP3      H2            -10.6888950150       21.9928054257       42.6795613111  TIP3      4833            0.0000000000
     39400      5034  TIP3      OH2            -8.7494401555       36.1912994349       40.8951651457  TIP3      4834            0.0000000000
     39401      5034  TIP3      H1             -7.8550098540       35.8839988094       40.6364455432  TIP3      4834            0.0000000000
     39402      5034  TIP3      H2             -9.2647393783       35.6829952983       40.2391014508  TIP3      4834            0.0000000000
     39403      5035  TIP3      OH2            -2.2391223588       35.3227985530       43.4252803660  TIP3      4835            0.0000000000
     39404      5035  TIP3      H1             -2.5407383120       34.4658916369       43.0246994432  TIP3      4835            0.0000000000
     39405      5035  TIP3      H2             -2.4482838274       35.9591450351       42.7132097341  TIP3      4835            0.0000000000
     39406      5036  TIP3      OH2           -15.8690745299       35.9480197318       39.4760475955  TIP3      4836            0.0000000000
     39407      5036  TIP3      H1            -16.5784241626       36.0737718498       40.1232613793  TIP3      4836            0.0000000000
     39408      5036  TIP3      H2            -15.4414302310       35.1507132969       39.8026370789  TIP3      4836            0.0000000000
     39409      5037  TIP3      OH2            11.5842612612       28.2627016093       45.4031255056  TIP3      4837            0.0000000000
     39410      5037  TIP3      H1             11.4939196812       29.1676336463       45.7552675784  TIP3      4837            0.0000000000
     39411      5037  TIP3      H2             10.6821781355       28.0822758131       45.1152509463  TIP3      4837            0.0000000000
     39412      5038  TIP3      OH2            10.4791227355       27.2186891130       48.7660303814  TIP3      4838            0.0000000000
     39413      5038  TIP3      H1             10.2847033727       26.8062603298       49.6215842544  TIP3      4838            0.0000000000
     39414      5038  TIP3      H2              9.5765798112       27.5510643907       48.5597666515  TIP3      4838            0.0000000000
     39415      5039  TIP3      OH2            13.3853360475       30.0513582632       47.2499351173  TIP3      4839            0.0000000000
     39416      5039  TIP3      H1             13.1539968058       29.3272440033       47.8682930661  TIP3      4839            0.0000000000
     39417      5039  TIP3      H2             13.7551036155       30.7144089619       47.8886121785  TIP3      4839            0.0000000000
     39418      5040  TIP3      OH2             3.7942738497       31.7143745242       48.9082211869  TIP3      4840            0.0000000000
     39419      5040  TIP3      H1              3.5415118832       30.8084844929       48.6010761244  TIP3      4840            0.0000000000
     39420      5040  TIP3      H2              4.7732903890       31.6078438532       48.9283353647  TIP3      4840            0.0000000000
     39421      5041  TIP3      OH2             0.2005901300       24.7057593913       44.5336914833  TIP3      4841            0.0000000000
     39422      5041  TIP3      H1              0.0537684128       25.5986317725       44.8819945346  TIP3      4841            0.0000000000
     39423      5041  TIP3      H2             -0.7009134997       24.4149339020       44.3290911963  TIP3      4841            0.0000000000
     39424      5042  TIP3      OH2             0.9508685692       27.1953751870       46.6188454929  TIP3      4842            0.0000000000
     39425      5042  TIP3      H1              1.3597308896       26.4284333711       47.0831916571  TIP3      4842            0.0000000000
     39426      5042  TIP3      H2              1.6514917173       27.8647660324       46.6032488321  TIP3      4842            0.0000000000
     39427      5043  TIP3      OH2            11.0031591763       35.6029387876       47.8208548657  TIP3      4843            0.0000000000
     39428      5043  TIP3      H1             11.6798318068       35.1036332942       47.3115811152  TIP3      4843            0.0000000000
     39429      5043  TIP3      H2             10.6111033437       34.8415594262       48.2786854072  TIP3      4843            0.0000000000
     39430      5044  TIP3      OH2             8.8302205665       30.6563761007       49.6880312074  TIP3      4844            0.0000000000
     39431      5044  TIP3      H1              8.4563815228       29.7662576026       49.4539771634  TIP3      4844            0.0000000000
     39432      5044  TIP3      H2              9.6501051951       30.3988297557       50.1372375455  TIP3      4844            0.0000000000
     39433      5045  TIP3      OH2            11.8884478466       24.2155137814       49.9428601410  TIP3      4845            0.0000000000
     39434      5045  TIP3      H1             11.9983232363       23.2641531930       49.7513969414  TIP3      4845            0.0000000000
     39435      5045  TIP3      H2             11.7340698597       24.5289623718       49.0337711249  TIP3      4845            0.0000000000
     39436      5046  TIP3      OH2             4.9939254218       22.2965202829       47.0257191230  TIP3      4846            0.0000000000
     39437      5046  TIP3      H1              5.0930902894       22.9747008665       46.3191977970  TIP3      4846            0.0000000000
     39438      5046  TIP3      H2              4.5050199738       21.6199796046       46.5288863596  TIP3      4846            0.0000000000
     39439      5047  TIP3      OH2            12.3914616005       22.4450089664       45.3780841990  TIP3      4847            0.0000000000
     39440      5047  TIP3      H1             12.9197006326       22.1103478457       46.1490476306  TIP3      4847            0.0000000000
     39441      5047  TIP3      H2             13.0096039279       23.1172362805       45.0723527208  TIP3      4847            0.0000000000
     39442      5048  TIP3      OH2             1.5497454313       24.5501365230       47.6467061764  TIP3      4848            0.0000000000
     39443      5048  TIP3      H1              2.1734106715       23.9822136419       48.1336920707  TIP3      4848            0.0000000000
     39444      5048  TIP3      H2              1.6163487151       24.1356832607       46.7470490301  TIP3      4848            0.0000000000
     39445      5049  TIP3      OH2             6.1669606439       25.9766757095       46.9695772974  TIP3      4849            0.0000000000
     39446      5049  TIP3      H1              6.9897798465       25.6050748014       47.3720833475  TIP3      4849            0.0000000000
     39447      5049  TIP3      H2              5.8739067546       25.2953204161       46.3377513125  TIP3      4849            0.0000000000
     39448      5050  TIP3      OH2            10.6108124765       30.7903377272       44.2785713476  TIP3      4850            0.0000000000
     39449      5050  TIP3      H1             10.4296865492       30.7363659248       43.3188451559  TIP3      4850            0.0000000000
     39450      5050  TIP3      H2             10.6032188600       31.7594655472       44.3954057467  TIP3      4850            0.0000000000
     39451      5051  TIP3      OH2            14.2027431495       22.0025555207       47.2336436816  TIP3      4851            0.0000000000
     39452      5051  TIP3      H1             13.6672174476       21.7627080214       48.0217955731  TIP3      4851            0.0000000000
     39453      5051  TIP3      H2             15.0876582713       21.7478026000       47.5500086736  TIP3      4851            0.0000000000
     39454      5052  TIP3      OH2             3.7242885346       23.4091600894       49.1790835962  TIP3      4852            0.0000000000
     39455      5052  TIP3      H1              4.0092284536       24.3375558909       49.0606604526  TIP3      4852            0.0000000000
     39456      5052  TIP3      H2              4.0531352613       22.9963200756       48.3492347060  TIP3      4852            0.0000000000
     39457      5053  TIP3      OH2             0.7634180324       30.1747406289       42.7798513175  TIP3      4853            0.0000000000
     39458      5053  TIP3      H1              0.7593715081       30.7904648152       42.0131109028  TIP3      4853            0.0000000000
     39459      5053  TIP3      H2              1.0258556100       30.7631329868       43.5075476815  TIP3      4853            0.0000000000
     39460      5054  TIP3      OH2            14.3163676446       31.8372697097       48.9511366240  TIP3      4854            0.0000000000
     39461      5054  TIP3      H1             14.1227201226       31.5063117481       49.8563448871  TIP3      4854            0.0000000000
     39462      5054  TIP3      H2             14.8238744357       32.6466011452       49.1178410286  TIP3      4854            0.0000000000
     39463      5055  TIP3      OH2             7.6473079674       18.7377423091       48.1899485762  TIP3      4855            0.0000000000
     39464      5055  TIP3      H1              7.8280157920       17.7983961440       48.3212275506  TIP3      4855            0.0000000000
     39465      5055  TIP3      H2              6.7193715754       18.8288923601       48.5089830619  TIP3      4855            0.0000000000
     39466      5056  TIP3      OH2            12.6081134006       34.1643118123       46.4018001341  TIP3      4856            0.0000000000
     39467      5056  TIP3      H1             12.7157573244       33.2226957237       46.1733861564  TIP3      4856            0.0000000000
     39468      5056  TIP3      H2             13.3875794331       34.5336874126       45.9206443127  TIP3      4856            0.0000000000
     39469      5057  TIP3      OH2            13.7855577470       31.7957377572       45.1424385225  TIP3      4857            0.0000000000
     39470      5057  TIP3      H1             13.6723298545       31.2402203636       44.3548770373  TIP3      4857            0.0000000000
     39471      5057  TIP3      H2             13.7243435341       31.1183053723       45.8554592263  TIP3      4857            0.0000000000
     39472      5058  TIP3      OH2             9.8772553305       27.3787930530       42.8086844680  TIP3      4858            0.0000000000
     39473      5058  TIP3      H1              9.4314678070       28.2389666081       42.6798267289  TIP3      4858            0.0000000000
     39474      5058  TIP3      H2             10.7842418660       27.5662438900       42.4770907184  TIP3      4858            0.0000000000
     39475      5059  TIP3      OH2            10.3072980851       26.3529835074       39.8623647862  TIP3      4859            0.0000000000
     39476      5059  TIP3      H1             10.8933298748       26.6972277744       40.5661231246  TIP3      4859            0.0000000000
     39477      5059  TIP3      H2             10.5074320488       25.4024476142       39.8971646441  TIP3      4859            0.0000000000
     39478      5060  TIP3      OH2            13.8608845255       27.4720674875       43.9651049426  TIP3      4860            0.0000000000
     39479      5060  TIP3      H1             13.1128042455       27.7856963099       44.5266476831  TIP3      4860            0.0000000000
     39480      5060  TIP3      H2             14.4425924289       27.0294892508       44.6199169989  TIP3      4860            0.0000000000
     39481      5061  TIP3      OH2             4.8509303078       28.2030147350       45.9940109073  TIP3      4861            0.0000000000
     39482      5061  TIP3      H1              4.7116926997       27.7486885342       45.1458801668  TIP3      4861            0.0000000000
     39483      5061  TIP3      H2              5.4043254581       27.5513086162       46.4788311310  TIP3      4861            0.0000000000
     39484      5062  TIP3      OH2             6.5171903015       31.7273572962       48.6246510105  TIP3      4862            0.0000000000
     39485      5062  TIP3      H1              6.5565903469       31.3323136882       47.7327940535  TIP3      4862            0.0000000000
     39486      5062  TIP3      H2              7.2068580423       31.1846949289       49.0788691118  TIP3      4862            0.0000000000
     39487      5063  TIP3      OH2             4.9752245282       26.0170568163       49.4015485463  TIP3      4863            0.0000000000
     39488      5063  TIP3      H1              5.4973776317       26.0863805422       48.5671793469  TIP3      4863            0.0000000000
     39489      5063  TIP3      H2              5.2626023095       26.8416708645       49.8184274907  TIP3      4863            0.0000000000
     39490      5064  TIP3      OH2            12.2828173618       27.1987540789       41.7274497710  TIP3      4864            0.0000000000
     39491      5064  TIP3      H1             12.8770186953       27.2882994672       42.5074808700  TIP3      4864            0.0000000000
     39492      5064  TIP3      H2             12.8732136178       27.4784472526       40.9790443289  TIP3      4864            0.0000000000
     39493      5065  TIP3      OH2            10.2426667964       33.6752690833       44.5825228769  TIP3      4865            0.0000000000
     39494      5065  TIP3      H1             10.4602939207       33.8412734712       45.5116904066  TIP3      4865            0.0000000000
     39495      5065  TIP3      H2              9.6000998958       34.3784608858       44.3943589602  TIP3      4865            0.0000000000
     39496      5066  TIP3      OH2            16.2539850670       18.3328173433       41.9613816683  TIP3      4866            0.0000000000
     39497      5066  TIP3      H1             15.2954508498       18.5175598271       42.0382266983  TIP3      4866            0.0000000000
     39498      5066  TIP3      H2             16.6235706544       19.2135443255       41.7422071799  TIP3      4866            0.0000000000
     39499      5067  TIP3      OH2             3.6270832817       27.0863943939       43.6117532910  TIP3      4867            0.0000000000
     39500      5067  TIP3      H1              3.5543975270       27.9647936556       43.1835364463  TIP3      4867            0.0000000000
     39501      5067  TIP3      H2              3.3681831482       26.4971651985       42.8910258506  TIP3      4867            0.0000000000
     39502      5068  TIP3      OH2            17.2691244352       32.7023859766       40.2002052603  TIP3      4868            0.0000000000
     39503      5068  TIP3      H1             17.6492509443       33.6092633869       40.1680005013  TIP3      4868            0.0000000000
     39504      5068  TIP3      H2             18.0805499535       32.1661382813       40.3328513843  TIP3      4868            0.0000000000
     39505      5069  TIP3      OH2             0.2685808677       32.4536090507       48.7305136138  TIP3      4869            0.0000000000
     39506      5069  TIP3      H1              1.2021273716       32.2026197929       48.7779970706  TIP3      4869            0.0000000000
     39507      5069  TIP3      H2              0.2308696463       33.3109916782       49.1935696640  TIP3      4869            0.0000000000
     39508      5070  TIP3      OH2             9.8180579914       36.6631685588       43.4648668180  TIP3      4870            0.0000000000
     39509      5070  TIP3      H1              9.8512801240       36.6283326012       42.4774178368  TIP3      4870            0.0000000000
     39510      5070  TIP3      H2              9.4276788782       37.5367118757       43.6096622153  TIP3      4870            0.0000000000
     39511      5071  TIP3      OH2             3.4899481314       34.7896896220       45.1156197692  TIP3      4871            0.0000000000
     39512      5071  TIP3      H1              3.7017455234       34.8880702611       46.0750011036  TIP3      4871            0.0000000000
     39513      5071  TIP3      H2              2.8720175148       34.0282200034       45.1600466401  TIP3      4871            0.0000000000
     39514      5072  TIP3      OH2            12.7035760069       35.4806092584       40.7937503732  TIP3      4872            0.0000000000
     39515      5072  TIP3      H1             13.3801138782       34.8627073954       40.4302583953  TIP3      4872            0.0000000000
     39516      5072  TIP3      H2             12.7290711726       35.2667415950       41.7526806415  TIP3      4872            0.0000000000
     39517      5073  TIP3      OH2            12.2234143575       35.4397523371       43.3796963010  TIP3      4873            0.0000000000
     39518      5073  TIP3      H1             11.3348563612       35.7892853662       43.5882449998  TIP3      4873            0.0000000000
     39519      5073  TIP3      H2             12.2626023623       34.6206947484       43.8962638734  TIP3      4873            0.0000000000
     39520      5074  TIP3      OH2             5.1777344022       20.0185563177       48.9131800758  TIP3      4874            0.0000000000
     39521      5074  TIP3      H1              4.3261702040       20.0508529905       48.4260037733  TIP3      4874            0.0000000000
     39522      5074  TIP3      H2              5.2427542901       20.9175947972       49.2905508096  TIP3      4874            0.0000000000
     39523      5075  TIP3      OH2            13.8948080995       28.1128112842       39.8503201578  TIP3      4875            0.0000000000
     39524      5075  TIP3      H1             13.7696692340       28.3003913829       38.8985691257  TIP3      4875            0.0000000000
     39525      5075  TIP3      H2             14.8441056190       28.3100201628       39.9467439185  TIP3      4875            0.0000000000
     39526      5076  TIP3      OH2             9.5963711476       21.8624926438       40.0054175019  TIP3      4876            0.0000000000
     39527      5076  TIP3      H1              9.2048540175       21.7317185924       40.8832420086  TIP3      4876            0.0000000000
     39528      5076  TIP3      H2              9.0427812928       21.2300292479       39.5205992798  TIP3      4876            0.0000000000
     39529      5077  TIP3      OH2             4.8828861391       24.2242431830       45.1731261347  TIP3      4877            0.0000000000
     39530      5077  TIP3      H1              3.9674290838       24.0274070728       44.9306552314  TIP3      4877            0.0000000000
     39531      5077  TIP3      H2              5.3752480018       24.1441553400       44.3217493111  TIP3      4877            0.0000000000
     39532      5078  TIP3      OH2            10.6971958192       25.3708495627       44.1936444990  TIP3      4878            0.0000000000
     39533      5078  TIP3      H1             10.4022976239       26.1430707668       43.6418498395  TIP3      4878            0.0000000000
     39534      5078  TIP3      H2             11.3475289815       25.0031053735       43.5746334981  TIP3      4878            0.0000000000
     39535      5079  TIP3      OH2            11.6290897833       24.7391273134       47.1557793867  TIP3      4879            0.0000000000
     39536      5079  TIP3      H1             11.3228868629       25.4884131605       46.6050104125  TIP3      4879            0.0000000000
     39537      5079  TIP3      H2             11.6345171516       24.0324962303       46.4826935924  TIP3      4879            0.0000000000
     39538      5080  TIP3      OH2             6.0146301584       22.1282894383       39.2376125616  TIP3      4880            0.0000000000
     39539      5080  TIP3      H1              5.4903173648       21.7140100168       39.9604154203  TIP3      4880            0.0000000000
     39540      5080  TIP3      H2              5.3337944311       22.5660375626       38.6957703729  TIP3      4880            0.0000000000
     39541      5081  TIP3      OH2            -0.5754264015       21.9242691101       46.4329565389  TIP3      4881            0.0000000000
     39542      5081  TIP3      H1              0.0526309734       21.9501539255       47.1795099087  TIP3      4881            0.0000000000
     39543      5081  TIP3      H2             -0.0078431726       22.1699868986       45.6876069953  TIP3      4881            0.0000000000
     39544      5082  TIP3      OH2             0.5430523963       22.4376931456       41.4847069801  TIP3      4882            0.0000000000
     39545      5082  TIP3      H1              1.2257496048       22.8654340958       40.9258863395  TIP3      4882            0.0000000000
     39546      5082  TIP3      H2             -0.1100486691       23.1709129498       41.5322042532  TIP3      4882            0.0000000000
     39547      5083  TIP3      OH2             7.9947301131       21.9474268515       45.9735292300  TIP3      4883            0.0000000000
     39548      5083  TIP3      H1              7.2032946021       22.0296485359       46.5289804823  TIP3      4883            0.0000000000
     39549      5083  TIP3      H2              8.6644425600       21.7026709742       46.6475559955  TIP3      4883            0.0000000000
     39550      5084  TIP3      OH2             1.9710273857       23.1057750461       45.4918174206  TIP3      4884            0.0000000000
     39551      5084  TIP3      H1              1.4658869665       23.5388618095       44.7609253254  TIP3      4884            0.0000000000
     39552      5084  TIP3      H2              2.4393986807       22.3613912257       45.0506638484  TIP3      4884            0.0000000000
     39553      5085  TIP3      OH2             6.1073742862       23.9385610828       42.8772240874  TIP3      4885            0.0000000000
     39554      5085  TIP3      H1              7.0153389048       23.9358965745       42.5435926084  TIP3      4885            0.0000000000
     39555      5085  TIP3      H2              5.6192563442       24.4199348876       42.1834329521  TIP3      4885            0.0000000000
     39556      5086  TIP3      OH2            12.2362998267       21.6963210567       49.1147896916  TIP3      4886            0.0000000000
     39557      5086  TIP3      H1             12.1309394296       21.2481032796       49.9681957856  TIP3      4886            0.0000000000
     39558      5086  TIP3      H2             11.3392928978       21.6161295216       48.7453831966  TIP3      4886            0.0000000000
     39559      5087  TIP3      OH2             4.9308430784       25.0259470000       40.5206443344  TIP3      4887            0.0000000000
     39560      5087  TIP3      H1              4.6080601961       24.5084223910       39.7584803430  TIP3      4887            0.0000000000
     39561      5087  TIP3      H2              5.7349081466       25.3762007524       40.0890635987  TIP3      4887            0.0000000000
     39562      5088  TIP3      OH2             8.5710791201       24.6510763245       48.1267238756  TIP3      4888            0.0000000000
     39563      5088  TIP3      H1              9.4561750456       24.6748134449       47.7325844321  TIP3      4888            0.0000000000
     39564      5088  TIP3      H2              8.7349770895       24.3532945473       49.0307293698  TIP3      4888            0.0000000000
     39565      5089  TIP3      OH2             3.3766157707       21.0611306617       44.8025153276  TIP3      4889            0.0000000000
     39566      5089  TIP3      H1              2.8950238488       20.3318681276       45.2688166574  TIP3      4889            0.0000000000
     39567      5089  TIP3      H2              3.9348711077       20.5541622640       44.2166585710  TIP3      4889            0.0000000000
     39568      5090  TIP3      OH2             8.3290733414       29.5094649368       42.6383951728  TIP3      4890            0.0000000000
     39569      5090  TIP3      H1              7.5547111844       29.0609565191       42.2393334763  TIP3      4890            0.0000000000
     39570      5090  TIP3      H2              7.9104712048       29.7908070703       43.4924637657  TIP3      4890            0.0000000000
     39571      5091  TIP3      OH2            12.0644845430       22.1928038708       40.9645911854  TIP3      4891            0.0000000000
     39572      5091  TIP3      H1             11.2036116369       22.3634287037       40.5241619276  TIP3      4891            0.0000000000
     39573      5091  TIP3      H2             12.3434474115       23.1103044342       41.1788452818  TIP3      4891            0.0000000000
     39574      5092  TIP3      OH2            12.6757956032       24.5216912106       42.0065407321  TIP3      4892            0.0000000000
     39575      5092  TIP3      H1             13.3681083439       24.2077017473       42.6124342534  TIP3      4892            0.0000000000
     39576      5092  TIP3      H2             13.0465250539       25.3636346984       41.6893115187  TIP3      4892            0.0000000000
     39577      5093  TIP3      OH2             3.1653134980       29.1263508469       48.1810873844  TIP3      4893            0.0000000000
     39578      5093  TIP3      H1              3.5407067446       28.9248115456       47.2991018015  TIP3      4893            0.0000000000
     39579      5093  TIP3      H2              3.8923979354       28.8465740125       48.7630820590  TIP3      4893            0.0000000000
     39580      5094  TIP3      OH2            10.2490428825       30.9661632989       41.5808825037  TIP3      4894            0.0000000000
     39581      5094  TIP3      H1              9.6932547385       31.7810866090       41.5892477875  TIP3      4894            0.0000000000
     39582      5094  TIP3      H2              9.5914644534       30.2899161971       41.8656689652  TIP3      4894            0.0000000000
     39583      5095  TIP3      OH2            17.3858208874       24.2476034117       42.1302007710  TIP3      4895            0.0000000000
     39584      5095  TIP3      H1             17.0080892900       24.2039913575       41.2247831870  TIP3      4895            0.0000000000
     39585      5095  TIP3      H2             17.7608848913       25.1528238813       42.1224959684  TIP3      4895            0.0000000000
     39586      5096  TIP3      OH2            15.7921373687       33.0375142931       42.4352454888  TIP3      4896            0.0000000000
     39587      5096  TIP3      H1             15.4544739132       32.2174089068       42.8112474842  TIP3      4896            0.0000000000
     39588      5096  TIP3      H2             16.2866565646       32.7448924213       41.6397816788  TIP3      4896            0.0000000000
     39589      5097  TIP3      OH2            13.0407749404       28.0590264000       49.0179289403  TIP3      4897            0.0000000000
     39590      5097  TIP3      H1             12.0899580625       27.8310657178       48.8728245325  TIP3      4897            0.0000000000
     39591      5097  TIP3      H2             13.4951394033       27.3421605822       48.5210329128  TIP3      4897            0.0000000000
     39592      5098  TIP3      OH2             5.5845472826       32.3899790986       45.6288228145  TIP3      4898            0.0000000000
     39593      5098  TIP3      H1              6.0704870352       33.2354783461       45.7118894920  TIP3      4898            0.0000000000
     39594      5098  TIP3      H2              4.9037629526       32.6206128089       44.9848080911  TIP3      4898            0.0000000000
     39595      5099  TIP3      OH2             1.9219696610       27.4515086817       40.1631480200  TIP3      4899            0.0000000000
     39596      5099  TIP3      H1              2.3496849969       28.0380616332       40.8202134524  TIP3      4899            0.0000000000
     39597      5099  TIP3      H2              0.9643363787       27.5330799720       40.3639486618  TIP3      4899            0.0000000000
     39598      5100  TIP3      OH2             6.7605569252       29.8683387702       44.7039151284  TIP3      4900            0.0000000000
     39599      5100  TIP3      H1              6.3508480488       30.6451585706       45.1297388335  TIP3      4900            0.0000000000
     39600      5100  TIP3      H2              6.7956601274       29.2372724286       45.4361827349  TIP3      4900            0.0000000000
     39601      5101  TIP3      OH2             6.1266619261       34.9308344124       44.3719884768  TIP3      4901            0.0000000000
     39602      5101  TIP3      H1              5.1613706039       34.9677482308       44.5285768871  TIP3      4901            0.0000000000
     39603      5101  TIP3      H2              6.4661273065       35.6954573974       44.9015120359  TIP3      4901            0.0000000000
     39604      5102  TIP3      OH2            13.6568898789       31.2587245802       40.2991102539  TIP3      4902            0.0000000000
     39605      5102  TIP3      H1             13.8263439614       30.7734883767       41.1336488429  TIP3      4902            0.0000000000
     39606      5102  TIP3      H2             12.7012055081       31.1771228124       40.2555630761  TIP3      4902            0.0000000000
     39607      5103  TIP3      OH2            18.0195726185       35.3236005373       40.3599031020  TIP3      4903            0.0000000000
     39608      5103  TIP3      H1             18.6401436211       36.0659462399       40.4040131965  TIP3      4903            0.0000000000
     39609      5103  TIP3      H2             17.1601383237       35.7734069467       40.5734985614  TIP3      4903            0.0000000000
     39610      5104  TIP3      OH2            14.3144734330       29.8563102610       42.5737119376  TIP3      4904            0.0000000000
     39611      5104  TIP3      H1             14.0624094926       29.0053070853       42.9830561110  TIP3      4904            0.0000000000
     39612      5104  TIP3      H2             15.2799299986       29.7055308141       42.4814971145  TIP3      4904            0.0000000000
     39613      5105  TIP3      OH2             7.6879060047       32.3566360554       38.9507766938  TIP3      4905            0.0000000000
     39614      5105  TIP3      H1              7.4222540410       31.7937106805       38.2144974877  TIP3      4905            0.0000000000
     39615      5105  TIP3      H2              6.9894557537       32.1542523344       39.6024654338  TIP3      4905            0.0000000000
     39616      5106  TIP3      OH2             6.2261527948       31.7601417997       41.3495329018  TIP3      4906            0.0000000000
     39617      5106  TIP3      H1              7.0082331366       31.3487112698       41.7461626986  TIP3      4906            0.0000000000
     39618      5106  TIP3      H2              6.3917796630       32.7013979747       41.6041445011  TIP3      4906            0.0000000000
     39619      5107  TIP3      OH2             3.1159616286       29.1584081163       41.8595981199  TIP3      4907            0.0000000000
     39620      5107  TIP3      H1              2.2239237343       29.4530206097       42.1411239476  TIP3      4907            0.0000000000
     39621      5107  TIP3      H2              3.4758820959       29.9397808197       41.4083572616  TIP3      4907            0.0000000000
     39622      5108  TIP3      OH2            11.5160405849       20.9947626376       43.2506218040  TIP3      4908            0.0000000000
     39623      5108  TIP3      H1             11.7924642768       21.5146359084       42.4635389944  TIP3      4908            0.0000000000
     39624      5108  TIP3      H2             11.9258362139       21.4804996923       43.9944644956  TIP3      4908            0.0000000000
     39625      5109  TIP3      OH2             8.9400870348       33.2168631425       41.9099399812  TIP3      4909            0.0000000000
     39626      5109  TIP3      H1              8.1051176857       33.7030899245       42.1001914120  TIP3      4909            0.0000000000
     39627      5109  TIP3      H2              9.5811546935       33.9429820644       41.9289691928  TIP3      4909            0.0000000000
     39628      5110  TIP3      OH2             8.9233611334       23.1407649246       43.6614869178  TIP3      4910            0.0000000000
     39629      5110  TIP3      H1              9.2838602770       24.0283537207       43.8512957675  TIP3      4910            0.0000000000
     39630      5110  TIP3      H2              8.5603922289       22.8488807121       44.5295375256  TIP3      4910            0.0000000000
     39631      5111  TIP3      OH2             9.3649074801       19.9349857958       44.3849450061  TIP3      4911            0.0000000000
     39632      5111  TIP3      H1              9.0900106404       20.6575513998       44.9773489565  TIP3      4911            0.0000000000
     39633      5111  TIP3      H2             10.1522521574       20.3593428537       43.9555440580  TIP3      4911            0.0000000000
     39634      5112  TIP3      OH2             6.5415579348       34.3545240509       41.8065625979  TIP3      4912            0.0000000000
     39635      5112  TIP3      H1              6.4198926653       35.1321050824       41.2112833385  TIP3      4912            0.0000000000
     39636      5112  TIP3      H2              6.2799779732       34.6946857750       42.6969643559  TIP3      4912            0.0000000000
     39637      5113  TIP3      OH2             4.9800582653       21.2556318576       41.5850102790  TIP3      4913            0.0000000000
     39638      5113  TIP3      H1              4.9456032629       22.0926950098       42.0725865658  TIP3      4913            0.0000000000
     39639      5113  TIP3      H2              5.8998209099       20.9720454295       41.7840885070  TIP3      4913            0.0000000000
     39640      5114  TIP3      OH2            14.0763970634       25.9864444288       47.6296895095  TIP3      4914            0.0000000000
     39641      5114  TIP3      H1             13.2626178172       25.4555601807       47.7658328236  TIP3      4914            0.0000000000
     39642      5114  TIP3      H2             14.7397068595       25.4786338151       48.1578495334  TIP3      4914            0.0000000000
     39643      5115  TIP3      OH2             3.3830133206       31.5151156884       40.3233808342  TIP3      4915            0.0000000000
     39644      5115  TIP3      H1              4.0178338324       31.9932842167       40.8900335171  TIP3      4915            0.0000000000
     39645      5115  TIP3      H2              4.0181591560       31.0460419205       39.7357873415  TIP3      4915            0.0000000000
     39646      5116  TIP3      OH2             1.7509957013       24.5032505367       39.9625858784  TIP3      4916            0.0000000000
     39647      5116  TIP3      H1              2.2323566522       25.3428628022       40.0861901171  TIP3      4916            0.0000000000
     39648      5116  TIP3      H2              1.0312661403       24.7344256080       39.3662452992  TIP3      4916            0.0000000000
     39649      5117  TIP3      OH2            15.4377700682       35.3259447419       49.4989255058  TIP3      4917            0.0000000000
     39650      5117  TIP3      H1             15.6472569948       35.8631952190       48.7107624156  TIP3      4917            0.0000000000
     39651      5117  TIP3      H2             16.2665576701       35.3713545452       49.9923944988  TIP3      4917            0.0000000000
     39652      5118  TIP3      OH2             2.7463049473       19.5142094540       48.0041049029  TIP3      4918            0.0000000000
     39653      5118  TIP3      H1              2.5941218451       19.1981770624       47.0884546331  TIP3      4918            0.0000000000
     39654      5118  TIP3      H2              2.6916516174       18.6785752307       48.4999146897  TIP3      4918            0.0000000000
     39655      5119  TIP3      OH2             1.4141099383       32.8894851663       44.5444339260  TIP3      4919            0.0000000000
     39656      5119  TIP3      H1              0.6650458141       33.3188968315       44.9751505078  TIP3      4919            0.0000000000
     39657      5119  TIP3      H2              1.3827282147       33.2984231512       43.6572504976  TIP3      4919            0.0000000000
     39658      5120  TIP3      OH2             9.6771086173       34.3462805885       38.8525944955  TIP3      4920            0.0000000000
     39659      5120  TIP3      H1              9.1998536058       33.5222345468       39.0791828930  TIP3      4920            0.0000000000
     39660      5120  TIP3      H2             10.4592567755       34.0057527532       38.3664454665  TIP3      4920            0.0000000000
     39661      5121  TIP3      OH2            14.3643495397       33.9116562836       39.4105950929  TIP3      4921            0.0000000000
     39662      5121  TIP3      H1             14.5146157805       33.0150017225       39.7725822647  TIP3      4921            0.0000000000
     39663      5121  TIP3      H2             15.0259423572       33.9889641626       38.6922453610  TIP3      4921            0.0000000000
     39664      5122  TIP3      OH2             5.1342919393       29.8550284909       38.8109904216  TIP3      4922            0.0000000000
     39665      5122  TIP3      H1              5.4165685674       29.4820808969       39.6626696027  TIP3      4922            0.0000000000
     39666      5122  TIP3      H2              5.9570156103       29.7084180748       38.2878710627  TIP3      4922            0.0000000000
     39667      5123  TIP3      OH2            10.7241218735       31.0479054285       38.7336896678  TIP3      4923            0.0000000000
     39668      5123  TIP3      H1             10.2375547520       31.0828291226       39.5737321093  TIP3      4923            0.0000000000
     39669      5123  TIP3      H2             10.6787909510       30.0765831511       38.5431397862  TIP3      4923            0.0000000000
     39670      5124  TIP3      OH2             6.2520741873       28.0132079952       41.3342597410  TIP3      4924            0.0000000000
     39671      5124  TIP3      H1              5.7120321533       27.3834767777       41.8256560534  TIP3      4924            0.0000000000
     39672      5124  TIP3      H2              6.6952653788       27.4399247866       40.6730927452  TIP3      4924            0.0000000000
     39673      5125  TIP3      OH2             7.4686496653       26.3196630967       39.3806812250  TIP3      4925            0.0000000000
     39674      5125  TIP3      H1              7.4730416612       26.5930270926       38.4404408960  TIP3      4925            0.0000000000
     39675      5125  TIP3      H2              8.4379020546       26.2571855370       39.5521975161  TIP3      4925            0.0000000000
     39676      5126  TIP3      OH2            16.7209297751       28.4152730679       38.8116770288  TIP3      4926            0.0000000000
     39677      5126  TIP3      H1             16.4585077453       28.0717199376       37.9315936828  TIP3      4926            0.0000000000
     39678      5126  TIP3      H2             16.5769875551       29.3869775269       38.6954337610  TIP3      4926            0.0000000000
     39679      5127  TIP3      OH2             7.0669416836       36.6640715808       40.4767606365  TIP3      4927            0.0000000000
     39680      5127  TIP3      H1              7.8201966811       37.1803573274       40.7883747858  TIP3      4927            0.0000000000
     39681      5127  TIP3      H2              6.5903307131       37.2903394794       39.9242828237  TIP3      4927            0.0000000000
     39682      5128  TIP3      OH2             0.6745310825       31.1703717700       40.1844077066  TIP3      4928            0.0000000000
     39683      5128  TIP3      H1              1.6482941043       31.2974129980       40.1219244657  TIP3      4928            0.0000000000
     39684      5128  TIP3      H2              0.5098485553       30.6761937583       39.3474841937  TIP3      4928            0.0000000000
     39685      5129  TIP3      OH2            -0.5173787397       36.8625036863       44.7674587785  TIP3      4929            0.0000000000
     39686      5129  TIP3      H1             -1.2602610244       36.4185498314       44.3174438837  TIP3      4929            0.0000000000
     39687      5129  TIP3      H2             -0.5604874165       36.3828240392       45.6230457280  TIP3      4929            0.0000000000
     39688      5130  TIP3      OH2             0.0690800758       34.8231891859       46.8053143935  TIP3      4930            0.0000000000
     39689      5130  TIP3      H1             -0.2653818737       33.9416642728       47.0446331198  TIP3      4930            0.0000000000
     39690      5130  TIP3      H2              0.6745401104       35.0086263923       47.5502736134  TIP3      4930            0.0000000000
     39691      5131  TIP3      OH2            16.9995275001       29.3441219489       42.5164504712  TIP3      4931            0.0000000000
     39692      5131  TIP3      H1             17.8825271160       29.7394481367       42.6931356020  TIP3      4931            0.0000000000
     39693      5131  TIP3      H2             16.9372911753       28.7031622339       43.2626536734  TIP3      4931            0.0000000000
     39694      5132  TIP3      OH2            17.2836775310       27.6452370165       44.7313330304  TIP3      4932            0.0000000000
     39695      5132  TIP3      H1             16.6245535610       27.0382524344       45.1321085656  TIP3      4932            0.0000000000
     39696      5132  TIP3      H2             17.9490127908       27.7050918697       45.4354544006  TIP3      4932            0.0000000000
     39697      5133  TIP3      OH2            17.3646039796       30.4157336543       49.7029750369  TIP3      4933            0.0000000000
     39698      5133  TIP3      H1             18.0162755634       29.7690528291       49.3701759129  TIP3      4933            0.0000000000
     39699      5133  TIP3      H2             17.3838611423       31.1086653101       49.0271511712  TIP3      4933            0.0000000000
     39700      5134  TIP3      OH2            18.0467805192       27.2186597610       40.9734071424  TIP3      4934            0.0000000000
     39701      5134  TIP3      H1             17.4067944842       27.3925020888       40.2451082302  TIP3      4934            0.0000000000
     39702      5134  TIP3      H2             17.8737719687       27.9851986368       41.5545341980  TIP3      4934            0.0000000000
     39703      5135  TIP3      OH2            16.2141537453       24.4977359385       39.3796999084  TIP3      4935            0.0000000000
     39704      5135  TIP3      H1             16.3035228328       25.0339617291       38.5837818362  TIP3      4935            0.0000000000
     39705      5135  TIP3      H2             15.9422453705       23.6334869566       39.0064962371  TIP3      4935            0.0000000000
     39706      5136  TIP3      OH2            15.4578659025       25.6693597391       45.3075607243  TIP3      4936            0.0000000000
     39707      5136  TIP3      H1             15.1580971723       24.8701816860       44.8287997602  TIP3      4936            0.0000000000
     39708      5136  TIP3      H2             15.0516145256       25.5851031914       46.2060406187  TIP3      4936            0.0000000000
     39709      5137  TIP3      OH2             0.2538239639       28.2933611452       48.9753119620  TIP3      4937            0.0000000000
     39710      5137  TIP3      H1              0.5407010041       27.8990947550       48.1253506150  TIP3      4937            0.0000000000
     39711      5137  TIP3      H2              0.9758029988       28.0429254554       49.5757224430  TIP3      4937            0.0000000000
     39712      5138  TIP3      OH2            15.4482498498       21.8558105993       38.6988451776  TIP3      4938            0.0000000000
     39713      5138  TIP3      H1             15.9020947664       21.4373159326       39.4548582679  TIP3      4938            0.0000000000
     39714      5138  TIP3      H2             14.5650560698       21.4678265648       38.7275493861  TIP3      4938            0.0000000000
     39715      5139  TIP3      OH2            14.8606655458       23.5849667231       43.6819451955  TIP3      4939            0.0000000000
     39716      5139  TIP3      H1             14.9972567646       22.6310008586       43.8679687311  TIP3      4939            0.0000000000
     39717      5139  TIP3      H2             15.6965423944       23.7662654631       43.2162307160  TIP3      4939            0.0000000000
     39718      5140  TIP3      OH2            15.7415890691       24.3064655675       48.7746732289  TIP3      4940            0.0000000000
     39719      5140  TIP3      H1             16.6954959938       24.0860542417       48.7676071296  TIP3      4940            0.0000000000
     39720      5140  TIP3      H2             15.4040805356       23.4745704178       49.1638158570  TIP3      4940            0.0000000000
     39721      5141  TIP3      OH2            15.7449700828       20.9656097875       43.7910803137  TIP3      4941            0.0000000000
     39722      5141  TIP3      H1             16.0334215542       20.5242331744       44.6130704508  TIP3      4941            0.0000000000
     39723      5141  TIP3      H2             15.1437368821       20.2872231205       43.4145964231  TIP3      4941            0.0000000000
     39724      5142  TIP3      OH2             1.1040364384       21.5983943601       48.7834171982  TIP3      4942            0.0000000000
     39725      5142  TIP3      H1              1.6199633033       20.8181520644       48.4655575552  TIP3      4942            0.0000000000
     39726      5142  TIP3      H2              1.7172317184       22.0061843773       49.4225771254  TIP3      4942            0.0000000000
     39727      5143  TIP3      OH2            -0.5492579068       24.4742842958       49.5801341881  TIP3      4943            0.0000000000
     39728      5143  TIP3      H1              0.0058196650       24.0565139185       48.8957062819  TIP3      4943            0.0000000000
     39729      5143  TIP3      H2             -0.2186823651       25.3792598648       49.5192268129  TIP3      4943            0.0000000000
     39730      5144  TIP3      OH2            17.3072505119       20.7514979851       40.5449124953  TIP3      4944            0.0000000000
     39731      5144  TIP3      H1             17.7877674083       20.2441901361       39.8482166701  TIP3      4944            0.0000000000
     39732      5144  TIP3      H2             17.9754306675       21.4316377265       40.7769199891  TIP3      4944            0.0000000000
     39733      5145  TIP3      OH2            -0.3747020249       20.7237169421       43.3128685414  TIP3      4945            0.0000000000
     39734      5145  TIP3      H1             -1.2992959203       21.0071828410       43.3842331660  TIP3      4945            0.0000000000
     39735      5145  TIP3      H2             -0.0116825738       21.3979833940       42.7097211668  TIP3      4945            0.0000000000
     39736      5146  TIP3      OH2            14.5349593950       35.5574953271       45.1594236695  TIP3      4946            0.0000000000
     39737      5146  TIP3      H1             15.3477644195       35.4618220316       44.6120636294  TIP3      4946            0.0000000000
     39738      5146  TIP3      H2             14.7884494577       36.2419907104       45.7977037667  TIP3      4946            0.0000000000
     39739      5147  TIP3      OH2             1.8564043574       35.0047767047       48.9110408316  TIP3      4947            0.0000000000
     39740      5147  TIP3      H1              2.2743161159       35.5499998996       49.6119333608  TIP3      4947            0.0000000000
     39741      5147  TIP3      H2              2.6570903718       34.6379985295       48.4578858901  TIP3      4947            0.0000000000
     39742      5148  TIP3      OH2             4.0063273137       34.1746238377       47.6490856101  TIP3      4948            0.0000000000
     39743      5148  TIP3      H1              4.0553359275       33.2157409951       47.8559134974  TIP3      4948            0.0000000000
     39744      5148  TIP3      H2              4.8810952176       34.4350223796       48.0237719289  TIP3      4948            0.0000000000
     39745      5149  TIP3      OH2             6.4011778277       34.3624073867       48.6442110638  TIP3      4949            0.0000000000
     39746      5149  TIP3      H1              6.6039882445       33.3953926965       48.6690367382  TIP3      4949            0.0000000000
     39747      5149  TIP3      H2              6.4209007754       34.6155927867       49.5769466731  TIP3      4949            0.0000000000
     39748      5150  TIP3      OH2             9.9315759607       20.6580107973       47.8333176148  TIP3      4950            0.0000000000
     39749      5150  TIP3      H1              9.2116324755       20.0828847189       48.1524364049  TIP3      4950            0.0000000000
     39750      5150  TIP3      H2             10.6498698732       20.0098022015       47.8997899000  TIP3      4950            0.0000000000
     39751      5151  TIP3      OH2            15.3158090124       18.8409071408       47.9114746044  TIP3      4951            0.0000000000
     39752      5151  TIP3      H1             15.8842024281       19.2343610832       47.2081862569  TIP3      4951            0.0000000000
     39753      5151  TIP3      H2             14.4154797443       19.1498959458       47.6730926784  TIP3      4951            0.0000000000
     39754      5152  TIP3      OH2            16.9100738774       19.6481477155       45.9443398465  TIP3      4952            0.0000000000
     39755      5152  TIP3      H1             17.5918440542       19.1346549121       45.4638865254  TIP3      4952            0.0000000000
     39756      5152  TIP3      H2             17.3922019178       20.4987233119       46.0755883716  TIP3      4952            0.0000000000
     39757      5153  TIP3      OH2             2.2360724671       18.7315579961       45.5119604216  TIP3      4953            0.0000000000
     39758      5153  TIP3      H1              1.3871858030       18.5224608769       45.0673796833  TIP3      4953            0.0000000000
     39759      5153  TIP3      H2              2.6847173233       17.8621070195       45.4023817904  TIP3      4953            0.0000000000
     39760      5154  TIP3      OH2             1.1799895073       18.7587546257       41.5370336383  TIP3      4954            0.0000000000
     39761      5154  TIP3      H1              1.4770139494       19.3968524559       40.8606083208  TIP3      4954            0.0000000000
     39762      5154  TIP3      H2              0.5927209844       19.3158240826       42.0843709701  TIP3      4954            0.0000000000
     39763      5155  TIP3      OH2             6.6224124446       18.4394272481       45.5779545739  TIP3      4955            0.0000000000
     39764      5155  TIP3      H1              7.3851271969       18.7367477351       45.0731266847  TIP3      4955            0.0000000000
     39765      5155  TIP3      H2              6.8968507161       18.6736176189       46.4766262538  TIP3      4955            0.0000000000
     39766      5156  TIP3      OH2            12.8032544299       19.0956067507       46.9483123552  TIP3      4956            0.0000000000
     39767      5156  TIP3      H1             12.4421129435       19.3503270435       46.0909094918  TIP3      4956            0.0000000000
     39768      5156  TIP3      H2             12.3148639978       18.2837299451       47.1789483894  TIP3      4956            0.0000000000
     39769      5157  TIP3      OH2            13.8748142656       19.0496096687       43.1353362677  TIP3      4957            0.0000000000
     39770      5157  TIP3      H1             12.9512623565       19.3147912104       42.9856811833  TIP3      4957            0.0000000000
     39771      5157  TIP3      H2             13.7316576205       18.1613629099       43.5174028344  TIP3      4957            0.0000000000
     39772      5158  TIP3      OH2             0.9648975391       34.6182719816       42.4591193644  TIP3      4958            0.0000000000
     39773      5158  TIP3      H1              0.0272727107       34.7097740903       42.1918553544  TIP3      4958            0.0000000000
     39774      5158  TIP3      H2              1.3373826562       35.3526421066       41.9351609127  TIP3      4958            0.0000000000
     39775      5159  TIP3      OH2             2.4563099323       20.8306745077       40.0489102409  TIP3      4959            0.0000000000
     39776      5159  TIP3      H1              3.1458872288       20.3188752904       39.5896794969  TIP3      4959            0.0000000000
     39777      5159  TIP3      H2              2.9277190385       21.1054826495       40.8574630860  TIP3      4959            0.0000000000
     39778      5160  TIP3      OH2             7.9416440945       21.1320403492       42.0877994182  TIP3      4960            0.0000000000
     39779      5160  TIP3      H1              8.2563270519       20.4893741487       42.7439111709  TIP3      4960            0.0000000000
     39780      5160  TIP3      H2              8.1791657205       21.9587426381       42.5578496468  TIP3      4960            0.0000000000
     39781      5161  TIP3      OH2            10.0838845670       36.2198569434       40.8531440093  TIP3      4961            0.0000000000
     39782      5161  TIP3      H1             11.0034441860       35.9567700227       40.6105980153  TIP3      4961            0.0000000000
     39783      5161  TIP3      H2              9.5993120371       35.7164486441       40.1676620753  TIP3      4961            0.0000000000
     39784      5162  TIP3      OH2            16.6261063559       35.3225195470       43.4447682019  TIP3      4962            0.0000000000
     39785      5162  TIP3      H1             16.3183479503       34.4631295480       43.0472347477  TIP3      4962            0.0000000000
     39786      5162  TIP3      H2             16.4213954294       35.9440809111       42.7224347781  TIP3      4962            0.0000000000
     39787      5163  TIP3      OH2             2.7540855578       35.7658458392       39.4245901902  TIP3      4963            0.0000000000
     39788      5163  TIP3      H1              2.2234053050       36.0302188545       40.1978998837  TIP3      4963            0.0000000000
     39789      5163  TIP3      H2              3.3363701713       35.1006604985       39.8061750608  TIP3      4963            0.0000000000
     39790      5164  TIP3      OH2            30.4003964333       28.1872967188       45.4184928072  TIP3      4964            0.0000000000
     39791      5164  TIP3      H1             30.3291326462       29.1355796624       45.6208447636  TIP3      4964            0.0000000000
     39792      5164  TIP3      H2             29.5727157885       28.0184988813       44.9497041752  TIP3      4964            0.0000000000
     39793      5165  TIP3      OH2            29.0629394899       27.1582283218       48.7637958048  TIP3      4965            0.0000000000
     39794      5165  TIP3      H1             29.0977178265       26.8122702058       49.6764584515  TIP3      4965            0.0000000000
     39795      5165  TIP3      H2             28.4371899365       26.5602992520       48.3244893486  TIP3      4965            0.0000000000
     39796      5166  TIP3      OH2            32.2430935461       30.1088109183       47.1779052156  TIP3      4966            0.0000000000
     39797      5166  TIP3      H1             31.7951740039       29.4621959672       47.7691070635  TIP3      4966            0.0000000000
     39798      5166  TIP3      H2             32.5151465490       30.7809219741       47.8264927506  TIP3      4966            0.0000000000
     39799      5167  TIP3      OH2            22.4562309031       31.5708099631       48.8712280803  TIP3      4967            0.0000000000
     39800      5167  TIP3      H1             22.1572997826       30.6676796024       48.6212839370  TIP3      4967            0.0000000000
     39801      5167  TIP3      H2             23.4181576192       31.4251905816       48.7878060497  TIP3      4967            0.0000000000
     39802      5168  TIP3      OH2            19.1854594846       24.5780049078       44.6548090442  TIP3      4968            0.0000000000
     39803      5168  TIP3      H1             19.0838226439       25.5106098276       44.9018136863  TIP3      4968            0.0000000000
     39804      5168  TIP3      H2             18.2991610346       24.3646252282       44.3244154050  TIP3      4968            0.0000000000
     39805      5169  TIP3      OH2            19.8691171072       27.2967035630       46.6587276441  TIP3      4969            0.0000000000
     39806      5169  TIP3      H1             20.2978299969       26.5453407797       47.1222697426  TIP3      4969            0.0000000000
     39807      5169  TIP3      H2             20.6025542096       27.9049658345       46.4778960783  TIP3      4969            0.0000000000
     39808      5170  TIP3      OH2            29.8027706085       35.5219011976       47.9420109955  TIP3      4970            0.0000000000
     39809      5170  TIP3      H1             30.4211486827       34.9864425367       47.4064395203  TIP3      4970            0.0000000000
     39810      5170  TIP3      H2             29.4434203697       34.7954098031       48.4821678978  TIP3      4970            0.0000000000
     39811      5171  TIP3      OH2            27.8091929393       30.1780014611       49.9477099585  TIP3      4971            0.0000000000
     39812      5171  TIP3      H1             28.1715665826       29.6366508851       49.2292635827  TIP3      4971            0.0000000000
     39813      5171  TIP3      H2             28.3918499817       29.9215243203       50.6769171444  TIP3      4971            0.0000000000
     39814      5172  TIP3      OH2            30.6681518669       24.3291160648       49.9289145805  TIP3      4972            0.0000000000
     39815      5172  TIP3      H1             30.8582730502       23.3923058550       50.0909182927  TIP3      4972            0.0000000000
     39816      5172  TIP3      H2             30.5116758359       24.3518708097       48.9730165186  TIP3      4972            0.0000000000
     39817      5173  TIP3      OH2            24.0894208441       22.1423610890       47.1429253792  TIP3      4973            0.0000000000
     39818      5173  TIP3      H1             24.1612868680       22.9390769662       46.5769542031  TIP3      4973            0.0000000000
     39819      5173  TIP3      H2             23.5995220680       21.5572110321       46.5385902460  TIP3      4973            0.0000000000
     39820      5174  TIP3      OH2            31.2870677841       22.6724849942       45.4572604052  TIP3      4974            0.0000000000
     39821      5174  TIP3      H1             31.8149149466       22.1755184820       46.1323174218  TIP3      4974            0.0000000000
     39822      5174  TIP3      H2             32.0038356318       23.1954682791       45.0669267594  TIP3      4974            0.0000000000
     39823      5175  TIP3      OH2            20.3137422042       24.6330676537       47.6597813122  TIP3      4975            0.0000000000
     39824      5175  TIP3      H1             20.9526871292       24.1343063613       48.2015443995  TIP3      4975            0.0000000000
     39825      5175  TIP3      H2             20.5398454085       24.3061129036       46.7580079549  TIP3      4975            0.0000000000
     39826      5176  TIP3      OH2            25.2905681493       26.1510332524       47.1349384623  TIP3      4976            0.0000000000
     39827      5176  TIP3      H1             26.0521347582       25.6085461559       47.4034526257  TIP3      4976            0.0000000000
     39828      5176  TIP3      H2             24.7923277281       25.4956859391       46.5907359341  TIP3      4976            0.0000000000
     39829      5177  TIP3      OH2            29.5058276743       30.7033469995       44.3580787928  TIP3      4977            0.0000000000
     39830      5177  TIP3      H1             29.2034986361       30.6330670084       43.4255690006  TIP3      4977            0.0000000000
     39831      5177  TIP3      H2             29.3852665382       31.6624301639       44.5243697137  TIP3      4977            0.0000000000
     39832      5178  TIP3      OH2            32.9937914735       21.8532802765       47.2501884030  TIP3      4978            0.0000000000
     39833      5178  TIP3      H1             32.5279150338       21.6383294968       48.0919133231  TIP3      4978            0.0000000000
     39834      5178  TIP3      H2             33.9241977069       21.7388277358       47.4835692786  TIP3      4978            0.0000000000
     39835      5179  TIP3      OH2            22.2961916608       23.2432773401       48.9148313682  TIP3      4979            0.0000000000
     39836      5179  TIP3      H1             22.6967613194       24.1276291307       49.0266445478  TIP3      4979            0.0000000000
     39837      5179  TIP3      H2             22.8564442284       22.8580230461       48.2039625232  TIP3      4979            0.0000000000
     39838      5180  TIP3      OH2            19.6078525534       30.1744357410       42.7264721045  TIP3      4980            0.0000000000
     39839      5180  TIP3      H1             19.6226160492       30.7349138497       41.9198245331  TIP3      4980            0.0000000000
     39840      5180  TIP3      H2             19.8097914521       30.8293544817       43.4173907794  TIP3      4980            0.0000000000
     39841      5181  TIP3      OH2            33.3945818820       32.0270887871       48.9585321917  TIP3      4981            0.0000000000
     39842      5181  TIP3      H1             32.7586845140       31.6278131543       49.5915942631  TIP3      4981            0.0000000000
     39843      5181  TIP3      H2             33.2539931193       32.9763064375       49.1390479041  TIP3      4981            0.0000000000
     39844      5182  TIP3      OH2            26.7070683073       18.8765922814       48.2339091017  TIP3      4982            0.0000000000
     39845      5182  TIP3      H1             26.7108773215       17.9030249807       48.3219282871  TIP3      4982            0.0000000000
     39846      5182  TIP3      H2             25.8309594980       19.1452799946       48.5674047063  TIP3      4982            0.0000000000
     39847      5183  TIP3      OH2            31.2586961023       34.0459347247       46.3173027789  TIP3      4983            0.0000000000
     39848      5183  TIP3      H1             31.5466884768       33.1863098713       45.9555599375  TIP3      4983            0.0000000000
     39849      5183  TIP3      H2             32.0502761553       34.5751856552       46.0560572968  TIP3      4983            0.0000000000
     39850      5184  TIP3      OH2            32.7097093691       31.7338862259       45.0610397914  TIP3      4984            0.0000000000
     39851      5184  TIP3      H1             32.4762715823       30.9901105677       44.4875836589  TIP3      4984            0.0000000000
     39852      5184  TIP3      H2             32.8250466090       31.2258006771       45.8855488975  TIP3      4984            0.0000000000
     39853      5185  TIP3      OH2            28.7085104189       27.3223657495       42.7885003187  TIP3      4985            0.0000000000
     39854      5185  TIP3      H1             28.1310881275       28.1090397752       42.7539413221  TIP3      4985            0.0000000000
     39855      5185  TIP3      H2             29.5005656830       27.6558537789       42.3157037540  TIP3      4985            0.0000000000
     39856      5186  TIP3      OH2            29.2468278031       26.3692218827       39.8057635019  TIP3      4986            0.0000000000
     39857      5186  TIP3      H1             29.9178209071       26.8621630881       40.3281135116  TIP3      4986            0.0000000000
     39858      5186  TIP3      H2             29.2073300259       25.5661795087       40.3480485321  TIP3      4986            0.0000000000
     39859      5187  TIP3      OH2            32.5303367360       27.4670009727       43.8315132988  TIP3      4987            0.0000000000
     39860      5187  TIP3      H1             31.8503614036       27.7009873153       44.5038664340  TIP3      4987            0.0000000000
     39861      5187  TIP3      H2             33.1126426448       26.8927274587       44.3836395564  TIP3      4987            0.0000000000
     39862      5188  TIP3      OH2            23.9418903408       28.0892931041       45.7909001784  TIP3      4988            0.0000000000
     39863      5188  TIP3      H1             23.5737910760       27.6646489055       44.9840900142  TIP3      4988            0.0000000000
     39864      5188  TIP3      H2             24.5931540549       27.4277323412       46.0960427443  TIP3      4988            0.0000000000
     39865      5189  TIP3      OH2            25.2131194407       31.7121929003       48.6014863401  TIP3      4989            0.0000000000
     39866      5189  TIP3      H1             25.1752365048       31.5536546866       47.6396908493  TIP3      4989            0.0000000000
     39867      5189  TIP3      H2             25.9794506252       31.1820300708       48.8833908073  TIP3      4989            0.0000000000
     39868      5190  TIP3      OH2            23.7102105479       26.1731173444       49.2968126802  TIP3      4990            0.0000000000
     39869      5190  TIP3      H1             24.3160317302       26.3068513772       48.5312236115  TIP3      4990            0.0000000000
     39870      5190  TIP3      H2             23.8691559992       26.9946538192       49.7968833662  TIP3      4990            0.0000000000
     39871      5191  TIP3      OH2            31.0888037093       27.1082421405       41.6138653405  TIP3      4991            0.0000000000
     39872      5191  TIP3      H1             31.5517031859       27.2369726055       42.4736953203  TIP3      4991            0.0000000000
     39873      5191  TIP3      H2             31.7437305069       27.5205427364       40.9893882440  TIP3      4991            0.0000000000
     39874      5192  TIP3      OH2            29.0018814662       33.3193757597       44.7714102057  TIP3      4992            0.0000000000
     39875      5192  TIP3      H1             29.4151208299       33.5479461693       45.6200665575  TIP3      4992            0.0000000000
     39876      5192  TIP3      H2             28.4687971305       34.0997841618       44.5746668711  TIP3      4992            0.0000000000
     39877      5193  TIP3      OH2            34.8480245263       18.4141141605       41.6770916129  TIP3      4993            0.0000000000
     39878      5193  TIP3      H1             33.8774974423       18.5046818315       41.7656827065  TIP3      4993            0.0000000000
     39879      5193  TIP3      H2             35.1507144807       19.3429603654       41.6452963624  TIP3      4993            0.0000000000
     39880      5194  TIP3      OH2            22.4671309636       27.0962374350       43.5770977522  TIP3      4994            0.0000000000
     39881      5194  TIP3      H1             22.3319149825       27.9549443253       43.1182991295  TIP3      4994            0.0000000000
     39882      5194  TIP3      H2             22.1718291670       26.4737950958       42.9084473892  TIP3      4994            0.0000000000
     39883      5195  TIP3      OH2            36.2266843873       32.9916931623       39.8682055822  TIP3      4995            0.0000000000
     39884      5195  TIP3      H1             36.4535054466       33.9197767061       40.0643244284  TIP3      4995            0.0000000000
     39885      5195  TIP3      H2             37.1161163664       32.6300124430       39.9779974721  TIP3      4995            0.0000000000
     39886      5196  TIP3      OH2            19.1532654837       32.4303984427       48.7000270197  TIP3      4996            0.0000000000
     39887      5196  TIP3      H1             20.0957294953       32.2190583793       48.7792767059  TIP3      4996            0.0000000000
     39888      5196  TIP3      H2             19.0692636929       33.2769809826       49.1674470656  TIP3      4996            0.0000000000
     39889      5197  TIP3      OH2            28.7382763294       36.6269257164       43.4997692476  TIP3      4997            0.0000000000
     39890      5197  TIP3      H1             28.7461712879       36.5529368320       42.5157733551  TIP3      4997            0.0000000000
     39891      5197  TIP3      H2             28.3368119268       37.4953287938       43.6248978098  TIP3      4997            0.0000000000
     39892      5198  TIP3      OH2            22.2980846351       34.7745936495       45.1909071453  TIP3      4998            0.0000000000
     39893      5198  TIP3      H1             22.5668374966       34.8882213728       46.1310077201  TIP3      4998            0.0000000000
     39894      5198  TIP3      H2             21.6343332642       34.0587733390       45.2927218349  TIP3      4998            0.0000000000
     39895      5199  TIP3      OH2            31.5000704804       35.5352899934       40.7896209454  TIP3      4999            0.0000000000
     39896      5199  TIP3      H1             32.1766190358       34.9222888714       40.4120546782  TIP3      4999            0.0000000000
     39897      5199  TIP3      H2             31.4978262455       35.2207071358       41.7186739134  TIP3      4999            0.0000000000
     39898      5200  TIP3      OH2            31.0467187112       35.2738755133       43.3893224461  TIP3      5000            0.0000000000
     39899      5200  TIP3      H1             30.1858434234       35.7054240109       43.5753458062  TIP3      5000            0.0000000000
     39900      5200  TIP3      H2             31.0060793611       34.4712929983       43.9329827557  TIP3      5000            0.0000000000
     39901      5201  TIP3      OH2            24.0461474503       19.9232405998       49.0434981538  TIP3      5001            0.0000000000
     39902      5201  TIP3      H1             23.3414747530       19.6896777195       48.3982175268  TIP3      5001            0.0000000000
     39903      5201  TIP3      H2             23.6553842920       20.7274229880       49.3882155007  TIP3      5001            0.0000000000
     39904      5202  TIP3      OH2            32.6357645942       28.2197345170       39.8804469790  TIP3      5002            0.0000000000
     39905      5202  TIP3      H1             32.3922740264       28.3282509973       38.9351677769  TIP3      5002            0.0000000000
     39906      5202  TIP3      H2             33.5950900397       28.4220873216       39.8265628662  TIP3      5002            0.0000000000
     39907      5203  TIP3      OH2            28.4103492798       22.0240108962       39.9918176970  TIP3      5003            0.0000000000
     39908      5203  TIP3      H1             27.9410169655       21.8778658840       40.8401792274  TIP3      5003            0.0000000000
     39909      5203  TIP3      H2             27.8731543333       21.4201652415       39.4515845546  TIP3      5003            0.0000000000
     39910      5204  TIP3      OH2            24.0949760018       24.3133677759       45.5892344136  TIP3      5004            0.0000000000
     39911      5204  TIP3      H1             23.1302066003       24.1599879412       45.4560769403  TIP3      5004            0.0000000000
     39912      5204  TIP3      H2             24.4292248129       24.2439646137       44.6603896803  TIP3      5004            0.0000000000
     39913      5205  TIP3      OH2            29.8597648250       25.4558139208       44.1866872366  TIP3      5005            0.0000000000
     39914      5205  TIP3      H1             29.4010325036       26.0961349555       43.5846800594  TIP3      5005            0.0000000000
     39915      5205  TIP3      H2             30.3657575292       24.9526922667       43.5320514342  TIP3      5005            0.0000000000
     39916      5206  TIP3      OH2            30.1111009431       24.7425559428       47.0021908969  TIP3      5006            0.0000000000
     39917      5206  TIP3      H1             30.0788447360       25.3927783465       46.2675284552  TIP3      5006            0.0000000000
     39918      5206  TIP3      H2             30.4613599084       23.9790438488       46.5014135791  TIP3      5006            0.0000000000
     39919      5207  TIP3      OH2            24.8166640280       22.2879284018       39.4556149841  TIP3      5007            0.0000000000
     39920      5207  TIP3      H1             24.3408325413       21.6964411602       40.0736307797  TIP3      5007            0.0000000000
     39921      5207  TIP3      H2             24.1223277262       22.5384291820       38.8213775196  TIP3      5007            0.0000000000
     39922      5208  TIP3      OH2            18.3072806462       21.9337207005       46.3417871168  TIP3      5008            0.0000000000
     39923      5208  TIP3      H1             18.9218825544       21.9852061273       47.0999126567  TIP3      5008            0.0000000000
     39924      5208  TIP3      H2             18.8680557536       22.1668284294       45.5878772536  TIP3      5008            0.0000000000
     39925      5209  TIP3      OH2            19.3495343909       22.4619131262       41.2844399277  TIP3      5009            0.0000000000
     39926      5209  TIP3      H1             20.0786483477       22.7528943494       40.7034588595  TIP3      5009            0.0000000000
     39927      5209  TIP3      H2             18.8622593910       23.3015859108       41.4148871278  TIP3      5009            0.0000000000
     39928      5210  TIP3      OH2            27.0922654335       22.1124810005       46.1997048212  TIP3      5010            0.0000000000
     39929      5210  TIP3      H1             26.2744491598       22.1399905717       46.7159951790  TIP3      5010            0.0000000000
     39930      5210  TIP3      H2             27.6705363044       21.5836389840       46.7912616726  TIP3      5010            0.0000000000
     39931      5211  TIP3      OH2            21.4332151380       23.5711866930       45.5125648115  TIP3      5011            0.0000000000
     39932      5211  TIP3      H1             20.6705448796       23.8769318661       44.9715627601  TIP3      5011            0.0000000000
     39933      5211  TIP3      H2             21.5974731609       22.6671242503       45.1584678610  TIP3      5011            0.0000000000
     39934      5212  TIP3      OH2            24.8729601172       23.9726456854       43.0868175770  TIP3      5012            0.0000000000
     39935      5212  TIP3      H1             25.7488211980       23.9898855895       42.6754976848  TIP3      5012            0.0000000000
     39936      5212  TIP3      H2             24.3924047094       24.5523452548       42.4902721914  TIP3      5012            0.0000000000
     39937      5213  TIP3      OH2            31.1666072598       21.6026338517       49.1593296951  TIP3      5013            0.0000000000
     39938      5213  TIP3      H1             31.0090439798       21.3080513157       50.0636707916  TIP3      5013            0.0000000000
     39939      5213  TIP3      H2             30.2537289107       21.6807912256       48.8477216141  TIP3      5013            0.0000000000
     39940      5214  TIP3      OH2            23.6146504669       25.1078156427       40.5443160149  TIP3      5014            0.0000000000
     39941      5214  TIP3      H1             23.3153348373       24.4191506480       39.9224526076  TIP3      5014            0.0000000000
     39942      5214  TIP3      H2             24.4595942424       25.3375491021       40.1080337717  TIP3      5014            0.0000000000
     39943      5215  TIP3      OH2            27.6646510518       24.6759314080       48.3437073040  TIP3      5015            0.0000000000
     39944      5215  TIP3      H1             28.4434807147       24.4454432680       47.7883918961  TIP3      5015            0.0000000000
     39945      5215  TIP3      H2             27.7449636020       24.1001808304       49.1165795534  TIP3      5015            0.0000000000
     39946      5216  TIP3      OH2            22.3333592127       21.1905157450       44.9671069760  TIP3      5016            0.0000000000
     39947      5216  TIP3      H1             21.7701813693       20.4003379321       45.1615320442  TIP3      5016            0.0000000000
     39948      5216  TIP3      H2             22.8613457479       20.8768869127       44.2229450835  TIP3      5016            0.0000000000
     39949      5217  TIP3      OH2            27.1632184107       29.5192641877       42.5120847237  TIP3      5017            0.0000000000
     39950      5217  TIP3      H1             26.4040202150       29.0176641870       42.1435395049  TIP3      5017            0.0000000000
     39951      5217  TIP3      H2             26.7362084756       29.8474814676       43.3440062110  TIP3      5017            0.0000000000
     39952      5218  TIP3      OH2            30.8970332063       22.1971896722       40.8023438759  TIP3      5018            0.0000000000
     39953      5218  TIP3      H1             29.9679248297       22.3687659078       40.5029821433  TIP3      5018            0.0000000000
     39954      5218  TIP3      H2             31.2173064056       23.0854093393       41.0491029703  TIP3      5018            0.0000000000
     39955      5219  TIP3      OH2            31.8742918384       24.4407681863       42.0007111645  TIP3      5019            0.0000000000
     39956      5219  TIP3      H1             32.6501976221       24.3179702600       42.5956461114  TIP3      5019            0.0000000000
     39957      5219  TIP3      H2             32.0189029445       25.3181393218       41.6238808315  TIP3      5019            0.0000000000
     39958      5220  TIP3      OH2            21.9843512760       29.0255873358       48.0862949368  TIP3      5020            0.0000000000
     39959      5220  TIP3      H1             22.3752051669       28.9438403680       47.1997598217  TIP3      5020            0.0000000000
     39960      5220  TIP3      H2             22.5950752707       28.5019166443       48.6248700037  TIP3      5020            0.0000000000
     39961      5221  TIP3      OH2            29.1553373740       30.9303945526       41.6087531439  TIP3      5021            0.0000000000
     39962      5221  TIP3      H1             28.5842128203       31.7346238229       41.7081185415  TIP3      5021            0.0000000000
     39963      5221  TIP3      H2             28.5151793170       30.2155446605       41.8259223067  TIP3      5021            0.0000000000
     39964      5222  TIP3      OH2            35.9909902039       24.3890790291       42.1159510457  TIP3      5022            0.0000000000
     39965      5222  TIP3      H1             35.7193793369       24.0268083520       41.2469087895  TIP3      5022            0.0000000000
     39966      5222  TIP3      H2             36.1975018660       25.3051358339       41.8226545742  TIP3      5022            0.0000000000
     39967      5223  TIP3      OH2            34.6846607628       33.0933590788       42.3888637975  TIP3      5023            0.0000000000
     39968      5223  TIP3      H1             34.1382559636       32.3660239567       42.7271643774  TIP3      5023            0.0000000000
     39969      5223  TIP3      H2             35.2040650837       32.6440654115       41.6958298249  TIP3      5023            0.0000000000
     39970      5224  TIP3      OH2            31.4052665440       28.3734311910       48.9838289334  TIP3      5024            0.0000000000
     39971      5224  TIP3      H1             30.4946530723       28.0203514343       48.8247265479  TIP3      5024            0.0000000000
     39972      5224  TIP3      H2             31.8852027980       27.7708342210       48.3597389366  TIP3      5024            0.0000000000
     39973      5225  TIP3      OH2            24.4056171917       32.3191628980       45.7320454217  TIP3      5025            0.0000000000
     39974      5225  TIP3      H1             24.9194558537       33.1543381524       45.6630311306  TIP3      5025            0.0000000000
     39975      5225  TIP3      H2             23.6580894409       32.5104352538       45.1458756406  TIP3      5025            0.0000000000
     39976      5226  TIP3      OH2            20.7961975367       27.4614366895       40.3550485417  TIP3      5026            0.0000000000
     39977      5226  TIP3      H1             21.1840082968       28.0332285855       41.0417108791  TIP3      5026            0.0000000000
     39978      5226  TIP3      H2             19.8222301789       27.5104755529       40.4894684058  TIP3      5026            0.0000000000
     39979      5227  TIP3      OH2            25.7166284486       29.9582542329       44.7021881085  TIP3      5027            0.0000000000
     39980      5227  TIP3      H1             25.3340240646       30.7623369611       45.1052171344  TIP3      5027            0.0000000000
     39981      5227  TIP3      H2             25.3289831112       29.2620299315       45.2625236348  TIP3      5027            0.0000000000
     39982      5228  TIP3      OH2            24.9601631451       34.7905946250       44.4726236844  TIP3      5028            0.0000000000
     39983      5228  TIP3      H1             23.9974937714       34.8950483750       44.5974275214  TIP3      5028            0.0000000000
     39984      5228  TIP3      H2             25.3119377711       35.5895390244       44.9413190589  TIP3      5028            0.0000000000
     39985      5229  TIP3      OH2            32.4995270582       31.4008365272       40.4721632765  TIP3      5029            0.0000000000
     39986      5229  TIP3      H1             32.6532252299       30.8004040253       41.2390335475  TIP3      5029            0.0000000000
     39987      5229  TIP3      H2             31.5619237585       31.2296219455       40.3105000455  TIP3      5029            0.0000000000
     39988      5230  TIP3      OH2            37.2004602413       35.3693213507       40.7999771991  TIP3      5030            0.0000000000
     39989      5230  TIP3      H1             37.5513270218       36.1150147906       40.2928748530  TIP3      5030            0.0000000000
     39990      5230  TIP3      H2             36.2564024145       35.6199910911       40.8536016630  TIP3      5030            0.0000000000
     39991      5231  TIP3      OH2            33.4039470011       29.8637023846       42.5371600776  TIP3      5031            0.0000000000
     39992      5231  TIP3      H1             33.0857470869       28.9802060716       42.8012053320  TIP3      5031            0.0000000000
     39993      5231  TIP3      H2             34.3688693455       29.7051654997       42.4203787854  TIP3      5031            0.0000000000
     39994      5232  TIP3      OH2            26.5451083604       32.4509994916       38.8419223844  TIP3      5032            0.0000000000
     39995      5232  TIP3      H1             26.4395586257       31.7536248163       38.1785744397  TIP3      5032            0.0000000000
     39996      5232  TIP3      H2             25.8695464162       32.2102076218       39.5069613895  TIP3      5032            0.0000000000
     39997      5233  TIP3      OH2            25.1633887400       31.8618889618       41.2846113195  TIP3      5033            0.0000000000
     39998      5233  TIP3      H1             25.9419794021       31.4251608243       41.6688254900  TIP3      5033            0.0000000000
     39999      5233  TIP3      H2             25.2931986295       32.7787516184       41.6267183370  TIP3      5033            0.0000000000
     40000      5234  TIP3      OH2            22.0704928109       29.1664739793       41.9406941547  TIP3      5034            0.0000000000
     40001      5234  TIP3      H1             21.1940131559       29.5393786626       42.1492351388  TIP3      5034            0.0000000000
     40002      5234  TIP3      H2             22.5125583871       29.9134527176       41.4918291569  TIP3      5034            0.0000000000
     40003      5235  TIP3      OH2            30.3025961781       21.3607628207       43.2964103425  TIP3      5035            0.0000000000
     40004      5235  TIP3      H1             30.3951934640       21.7593171291       42.4075224317  TIP3      5035            0.0000000000
     40005      5235  TIP3      H2             30.6560223015       22.0488949493       43.9012553698  TIP3      5035            0.0000000000
     40006      5236  TIP3      OH2            27.8530725294       33.1865276657       41.8874803428  TIP3      5036            0.0000000000
     40007      5236  TIP3      H1             27.0087743930       33.6808274722       41.9850998760  TIP3      5036            0.0000000000
     40008      5236  TIP3      H2             28.4867625631       33.9115319760       41.8548933705  TIP3      5036            0.0000000000
     40009      5237  TIP3      OH2            28.0819300891       23.4486061685       44.1443140229  TIP3      5037            0.0000000000
     40010      5237  TIP3      H1             28.5801097232       24.2638237229       44.3796007815  TIP3      5037            0.0000000000
     40011      5237  TIP3      H2             27.9231363402       23.0146333815       45.0067990045  TIP3      5037            0.0000000000
     40012      5238  TIP3      OH2            28.2108658154       20.0543616560       44.2945782866  TIP3      5038            0.0000000000
     40013      5238  TIP3      H1             27.8915281282       20.6647350181       44.9778177997  TIP3      5038            0.0000000000
     40014      5238  TIP3      H2             29.0140614027       20.5501916453       43.9795605783  TIP3      5038            0.0000000000
     40015      5239  TIP3      OH2            25.5339879589       34.4148945371       41.8731279767  TIP3      5039            0.0000000000
     40016      5239  TIP3      H1             25.5750108137       35.2070455207       41.2844013467  TIP3      5039            0.0000000000
     40017      5239  TIP3      H2             25.2178821486       34.7570567157       42.7363649553  TIP3      5039            0.0000000000
     40018      5240  TIP3      OH2            23.5093786277       21.4920615485       41.8269642366  TIP3      5040            0.0000000000
     40019      5240  TIP3      H1             23.8885323290       22.2449184176       42.3098142980  TIP3      5040            0.0000000000
     40020      5240  TIP3      H2             24.2738284486       20.8930991738       41.7740888938  TIP3      5040            0.0000000000
     40021      5241  TIP3      OH2            32.3742898108       26.3121987812       47.5465722411  TIP3      5041            0.0000000000
     40022      5241  TIP3      H1             31.6300514708       25.6870404605       47.4901819268  TIP3      5041            0.0000000000
     40023      5241  TIP3      H2             32.9974907824       25.8099086407       48.1238975365  TIP3      5041            0.0000000000
     40024      5242  TIP3      OH2            22.2697946772       31.4893399668       40.3405295366  TIP3      5042            0.0000000000
     40025      5242  TIP3      H1             22.8840006875       32.0254477567       40.8754188731  TIP3      5042            0.0000000000
     40026      5242  TIP3      H2             22.9323913240       31.0043798504       39.7942132162  TIP3      5042            0.0000000000
     40027      5243  TIP3      OH2            20.5926793550       24.4328034238       39.7430934171  TIP3      5043            0.0000000000
     40028      5243  TIP3      H1             21.0006211164       25.2644754136       40.0329351649  TIP3      5043            0.0000000000
     40029      5243  TIP3      H2             19.8954619826       24.7700684173       39.1601500663  TIP3      5043            0.0000000000
     40030      5244  TIP3      OH2            34.3745076935       34.9920397761       49.5841215522  TIP3      5044            0.0000000000
     40031      5244  TIP3      H1             34.2276526328       35.6698355829       48.8937361592  TIP3      5044            0.0000000000
     40032      5244  TIP3      H2             35.2594623438       35.2571163824       49.8799386785  TIP3      5044            0.0000000000
     40033      5245  TIP3      OH2            21.6839155431       19.4657430547       47.9027335316  TIP3      5045            0.0000000000
     40034      5245  TIP3      H1             21.4436026654       19.0728332454       47.0277042782  TIP3      5045            0.0000000000
     40035      5245  TIP3      H2             21.4973549986       18.7211549330       48.4993796884  TIP3      5045            0.0000000000
     40036      5246  TIP3      OH2            20.1836456787       32.9158929518       44.4145865299  TIP3      5046            0.0000000000
     40037      5246  TIP3      H1             19.4189482099       33.3956578202       44.7683194347  TIP3      5046            0.0000000000
     40038      5246  TIP3      H2             20.2480392797       33.3981179801       43.5602946028  TIP3      5046            0.0000000000
     40039      5247  TIP3      OH2            28.5587434046       34.3246263014       38.9266516329  TIP3      5047            0.0000000000
     40040      5247  TIP3      H1             28.0108272349       33.5073243335       39.0103550314  TIP3      5047            0.0000000000
     40041      5247  TIP3      H2             29.3795807285       33.9883738298       38.4998655545  TIP3      5047            0.0000000000
     40042      5248  TIP3      OH2            33.1757338996       33.9334862232       39.4719826672  TIP3      5048            0.0000000000
     40043      5248  TIP3      H1             33.3094793249       33.0612078227       39.8833799654  TIP3      5048            0.0000000000
     40044      5248  TIP3      H2             33.8941249318       33.9967030485       38.8269941262  TIP3      5048            0.0000000000
     40045      5249  TIP3      OH2            23.9351649219       29.8726061353       38.8427718794  TIP3      5049            0.0000000000
     40046      5249  TIP3      H1             23.9684359950       29.0805256293       39.3904966849  TIP3      5049            0.0000000000
     40047      5249  TIP3      H2             24.8279660800       29.8380319566       38.4362479993  TIP3      5049            0.0000000000
     40048      5250  TIP3      OH2            29.5042015676       31.0224067379       38.7629711477  TIP3      5050            0.0000000000
     40049      5250  TIP3      H1             29.1398703349       30.9581489269       39.6628421609  TIP3      5050            0.0000000000
     40050      5250  TIP3      H2             29.4099881548       30.0705462906       38.5060182626  TIP3      5050            0.0000000000
     40051      5251  TIP3      OH2            25.1211936444       27.9187769291       41.4495686185  TIP3      5051            0.0000000000
     40052      5251  TIP3      H1             24.4048268717       27.3463038668       41.7571620259  TIP3      5051            0.0000000000
     40053      5251  TIP3      H2             25.5220919653       27.3743039276       40.7409543958  TIP3      5051            0.0000000000
     40054      5252  TIP3      OH2            26.4028053294       26.3285980508       39.4353809922  TIP3      5052            0.0000000000
     40055      5252  TIP3      H1             26.2868176108       26.3729855439       38.4641895520  TIP3      5052            0.0000000000
     40056      5252  TIP3      H2             27.3841812178       26.3460856004       39.4803904387  TIP3      5052            0.0000000000
     40057      5253  TIP3      OH2            35.2026774322       28.4072688219       38.9698790317  TIP3      5053            0.0000000000
     40058      5253  TIP3      H1             35.0668997090       28.1836410505       38.0213509857  TIP3      5053            0.0000000000
     40059      5253  TIP3      H2             35.5623657100       29.3151432638       38.9106859101  TIP3      5053            0.0000000000
     40060      5254  TIP3      OH2            26.0300050620       36.6258869695       40.4661237012  TIP3      5054            0.0000000000
     40061      5254  TIP3      H1             26.8662086238       37.0566993845       40.6982503239  TIP3      5054            0.0000000000
     40062      5254  TIP3      H2             25.5912083208       37.2724766876       39.8997046230  TIP3      5054            0.0000000000
     40063      5255  TIP3      OH2            19.5334050607       31.1557298152       40.2190685734  TIP3      5055            0.0000000000
     40064      5255  TIP3      H1             20.5141803290       31.2577406977       40.1669984312  TIP3      5055            0.0000000000
     40065      5255  TIP3      H2             19.3503261797       30.7122635135       39.3631647031  TIP3      5055            0.0000000000
     40066      5256  TIP3      OH2            18.3698882008       36.8706447727       44.7407766257  TIP3      5056            0.0000000000
     40067      5256  TIP3      H1             17.5867011671       36.4860727256       44.3101925418  TIP3      5056            0.0000000000
     40068      5256  TIP3      H2             18.3009085143       36.3998871481       45.5941236429  TIP3      5056            0.0000000000
     40069      5257  TIP3      OH2            19.0280405320       34.7936839749       46.7530485564  TIP3      5057            0.0000000000
     40070      5257  TIP3      H1             18.6615370039       33.9278555694       46.9963385313  TIP3      5057            0.0000000000
     40071      5257  TIP3      H2             19.5868230831       34.9935181657       47.5286956318  TIP3      5057            0.0000000000
     40072      5258  TIP3      OH2            36.1365612819       29.4245420655       42.5859699870  TIP3      5058            0.0000000000
     40073      5258  TIP3      H1             36.9276385207       29.9188224701       42.8271441782  TIP3      5058            0.0000000000
     40074      5258  TIP3      H2             36.0791616822       28.7900235675       43.3371692259  TIP3      5058            0.0000000000
     40075      5259  TIP3      OH2            36.2380079288       27.7687511680       44.6431490337  TIP3      5059            0.0000000000
     40076      5259  TIP3      H1             35.3942893797       27.3494301486       44.9036505430  TIP3      5059            0.0000000000
     40077      5259  TIP3      H2             36.7269455425       27.7575341916       45.4809030894  TIP3      5059            0.0000000000
     40078      5260  TIP3      OH2            37.2496532381       29.7777792774       48.6490419966  TIP3      5060            0.0000000000
     40079      5260  TIP3      H1             38.1552999605       29.4797912958       48.8869157264  TIP3      5060            0.0000000000
     40080      5260  TIP3      H2             37.4475957703       30.7184828182       48.4676586575  TIP3      5060            0.0000000000
     40081      5261  TIP3      OH2            36.4913473853       27.0638216097       41.2921881182  TIP3      5061            0.0000000000
     40082      5261  TIP3      H1             36.0527956900       27.3073234293       40.4566062066  TIP3      5061            0.0000000000
     40083      5261  TIP3      H2             36.5588246616       27.9404079427       41.7148311705  TIP3      5061            0.0000000000
     40084      5262  TIP3      OH2            34.8154198694       24.2735055697       39.4465536149  TIP3      5062            0.0000000000
     40085      5262  TIP3      H1             35.0546154722       24.9080520186       38.7573284174  TIP3      5062            0.0000000000
     40086      5262  TIP3      H2             34.6129290370       23.4730648440       38.9188972738  TIP3      5062            0.0000000000
     40087      5263  TIP3      OH2            34.0509111694       25.9767008457       45.3891268422  TIP3      5063            0.0000000000
     40088      5263  TIP3      H1             34.2694949900       25.0452981939       45.5531607678  TIP3      5063            0.0000000000
     40089      5263  TIP3      H2             33.6807972056       26.2233007926       46.2613279416  TIP3      5063            0.0000000000
     40090      5264  TIP3      OH2            18.9792210366       28.2390778801       49.0638913192  TIP3      5064            0.0000000000
     40091      5264  TIP3      H1             19.3288418698       27.9170435027       48.2033466623  TIP3      5064            0.0000000000
     40092      5264  TIP3      H2             19.7511727778       28.0830012660       49.6350119078  TIP3      5064            0.0000000000
     40093      5265  TIP3      OH2            34.1861728935       21.8752267115       38.4686201584  TIP3      5065            0.0000000000
     40094      5265  TIP3      H1             34.2393317980       21.5431885186       39.3760990961  TIP3      5065            0.0000000000
     40095      5265  TIP3      H2             33.2787944527       21.5717250332       38.2151133147  TIP3      5065            0.0000000000
     40096      5266  TIP3      OH2            34.0230565329       23.5061584419       43.7427008266  TIP3      5066            0.0000000000
     40097      5266  TIP3      H1             34.1909866712       22.5575802262       43.8933965760  TIP3      5066            0.0000000000
     40098      5266  TIP3      H2             34.8964536055       23.7744630502       43.3920995014  TIP3      5066            0.0000000000
     40099      5267  TIP3      OH2            34.1364372948       24.5824018623       48.4274855023  TIP3      5067            0.0000000000
     40100      5267  TIP3      H1             35.1166402626       24.4933796655       48.4731299771  TIP3      5067            0.0000000000
     40101      5267  TIP3      H2             33.8485798602       23.8311466110       48.9704847971  TIP3      5067            0.0000000000
     40102      5268  TIP3      OH2            34.2354767303       20.7577403775       43.8948156637  TIP3      5068            0.0000000000
     40103      5268  TIP3      H1             34.3925845547       20.4239574996       44.8029733669  TIP3      5068            0.0000000000
     40104      5268  TIP3      H2             33.6501976321       20.0588212793       43.5049461658  TIP3      5068            0.0000000000
     40105      5269  TIP3      OH2            19.9727759893       21.6068152932       48.7460201915  TIP3      5069            0.0000000000
     40106      5269  TIP3      H1             20.4361641154       20.7971722395       48.4456672837  TIP3      5069            0.0000000000
     40107      5269  TIP3      H2             20.7020986447       22.1038842280       49.1667950413  TIP3      5069            0.0000000000
     40108      5270  TIP3      OH2            18.3999570938       24.4745986949       49.6768962819  TIP3      5070            0.0000000000
     40109      5270  TIP3      H1             18.8593993527       24.0840767534       48.9045806904  TIP3      5070            0.0000000000
     40110      5270  TIP3      H2             18.6938950304       25.3940570194       49.5843383792  TIP3      5070            0.0000000000
     40111      5271  TIP3      OH2            36.4174595686       20.7348900168       40.7257296707  TIP3      5071            0.0000000000
     40112      5271  TIP3      H1             36.6828233722       20.2272988045       39.9489209430  TIP3      5071            0.0000000000
     40113      5271  TIP3      H2             36.5654835979       21.6542183982       40.4501215930  TIP3      5071            0.0000000000
     40114      5272  TIP3      OH2            18.5913054854       20.7904961235       43.3120766682  TIP3      5072            0.0000000000
     40115      5272  TIP3      H1             17.6429897476       20.9695083158       43.4347942507  TIP3      5072            0.0000000000
     40116      5272  TIP3      H2             18.8051511920       21.4011383035       42.5916813658  TIP3      5072            0.0000000000
     40117      5273  TIP3      OH2            33.2904244386       35.5221231179       45.2944089331  TIP3      5073            0.0000000000
     40118      5273  TIP3      H1             33.9429289404       35.5514467636       44.5682655871  TIP3      5073            0.0000000000
     40119      5273  TIP3      H2             33.6653739206       36.1843967816       45.8993698899  TIP3      5073            0.0000000000
     40120      5274  TIP3      OH2            20.7370291904       34.9740080166       48.9605428698  TIP3      5074            0.0000000000
     40121      5274  TIP3      H1             21.2051302897       35.5884169786       49.5641787307  TIP3      5074            0.0000000000
     40122      5274  TIP3      H2             21.4879316466       34.5797651915       48.4600220572  TIP3      5074            0.0000000000
     40123      5275  TIP3      OH2            22.8633960134       34.1944161680       47.6819212852  TIP3      5075            0.0000000000
     40124      5275  TIP3      H1             22.9343247194       33.2266608573       47.8160406368  TIP3      5075            0.0000000000
     40125      5275  TIP3      H2             23.7257815442       34.4862149217       48.0600175837  TIP3      5075            0.0000000000
     40126      5276  TIP3      OH2            25.2269245560       34.3975887637       48.7022721209  TIP3      5076            0.0000000000
     40127      5276  TIP3      H1             25.3883158769       33.4293204082       48.7133742638  TIP3      5076            0.0000000000
     40128      5276  TIP3      H2             25.2654570754       34.6417563097       49.6352270305  TIP3      5076            0.0000000000
     40129      5277  TIP3      OH2            28.7424999360       20.7320564526       47.7859419991  TIP3      5077            0.0000000000
     40130      5277  TIP3      H1             28.1749122688       19.9938706934       48.0812038067  TIP3      5077            0.0000000000
     40131      5277  TIP3      H2             29.5803719257       20.2421842082       47.6867694509  TIP3      5077            0.0000000000
     40132      5278  TIP3      OH2            33.7458931035       18.6849912275       48.2479434210  TIP3      5078            0.0000000000
     40133      5278  TIP3      H1             34.2664278084       19.2266924982       47.6193374108  TIP3      5078            0.0000000000
     40134      5278  TIP3      H2             32.8547051492       18.9244778653       47.9510226074  TIP3      5078            0.0000000000
     40135      5279  TIP3      OH2            35.2124056971       19.8738670166       46.3759955863  TIP3      5079            0.0000000000
     40136      5279  TIP3      H1             35.8714134112       19.2572021797       45.9816656474  TIP3      5079            0.0000000000
     40137      5279  TIP3      H2             35.7008171210       20.7321893140       46.3154893481  TIP3      5079            0.0000000000
     40138      5280  TIP3      OH2            21.0557705484       18.6670341092       45.4149384618  TIP3      5080            0.0000000000
     40139      5280  TIP3      H1             20.1487866843       18.4962635681       45.0756277804  TIP3      5080            0.0000000000
     40140      5280  TIP3      H2             21.4497713766       17.7692672870       45.3315255628  TIP3      5080            0.0000000000
     40141      5281  TIP3      OH2            19.7544197012       18.7394310048       41.4562920410  TIP3      5081            0.0000000000
     40142      5281  TIP3      H1             20.1331559797       19.4046783323       40.8416957719  TIP3      5081            0.0000000000
     40143      5281  TIP3      H2             19.4347873296       19.3035028381       42.1879874235  TIP3      5081            0.0000000000
     40144      5282  TIP3      OH2            25.4475304197       18.5442624371       45.8439311403  TIP3      5082            0.0000000000
     40145      5282  TIP3      H1             26.0275234358       18.7665430084       45.1053809971  TIP3      5082            0.0000000000
     40146      5282  TIP3      H2             25.9496929675       18.8791656218       46.6064495621  TIP3      5082            0.0000000000
     40147      5283  TIP3      OH2            31.2414979164       19.2233475703       46.8345300585  TIP3      5083            0.0000000000
     40148      5283  TIP3      H1             31.2004162182       19.3734260404       45.8865400739  TIP3      5083            0.0000000000
     40149      5283  TIP3      H2             30.7607280216       18.3758525212       46.9617205411  TIP3      5083            0.0000000000
     40150      5284  TIP3      OH2            32.4079876554       19.0598347224       43.0421578950  TIP3      5084            0.0000000000
     40151      5284  TIP3      H1             31.6064782919       19.6010552801       43.1389231956  TIP3      5084            0.0000000000
     40152      5284  TIP3      H2             32.0817841466       18.1539680173       43.2510919581  TIP3      5084            0.0000000000
     40153      5285  TIP3      OH2            19.7814331860       34.6151744048       42.4735887020  TIP3      5085            0.0000000000
     40154      5285  TIP3      H1             18.8539761727       34.7005124425       42.1902150462  TIP3      5085            0.0000000000
     40155      5285  TIP3      H2             20.1804475861       35.3325756297       41.9390578178  TIP3      5085            0.0000000000
     40156      5286  TIP3      OH2            21.3910620174       20.7167719250       40.0751428487  TIP3      5086            0.0000000000
     40157      5286  TIP3      H1             22.0457211431       20.0709949479       39.7364076349  TIP3      5086            0.0000000000
     40158      5286  TIP3      H2             21.8398580809       20.9194585604       40.9218193999  TIP3      5086            0.0000000000
     40159      5287  TIP3      OH2            26.9131474487       21.3311901009       42.0770578921  TIP3      5087            0.0000000000
     40160      5287  TIP3      H1             27.2072560374       20.5962965328       42.6473644495  TIP3      5087            0.0000000000
     40161      5287  TIP3      H2             27.0652861686       22.1017931682       42.6497343132  TIP3      5087            0.0000000000
     40162      5288  TIP3      OH2            28.8580238025       36.2081926196       40.8385950039  TIP3      5088            0.0000000000
     40163      5288  TIP3      H1             29.7436085933       35.9803776856       40.4977561494  TIP3      5088            0.0000000000
     40164      5288  TIP3      H2             28.3315454983       35.6616423424       40.2223654231  TIP3      5088            0.0000000000
     40165      5289  TIP3      OH2            35.3003138156       35.4831077315       43.4728904420  TIP3      5089            0.0000000000
     40166      5289  TIP3      H1             35.1232669104       34.5622790087       43.1752121624  TIP3      5089            0.0000000000
     40167      5289  TIP3      H2             35.3232744930       35.9655764615       42.6225657912  TIP3      5089            0.0000000000
     40168      5290  TIP3      OH2            21.6319360764       35.8508370114       39.3688858975  TIP3      5090            0.0000000000
     40169      5290  TIP3      H1             21.1454311226       36.0404434310       40.1915406601  TIP3      5090            0.0000000000
     40170      5290  TIP3      H2             22.2337870330       35.1474516373       39.6462918020  TIP3      5090            0.0000000000
     40171      5291  TIP3      OH2            37.1727855516       25.2635361196       44.6049854626  TIP3      5091            0.0000000000
     40172      5291  TIP3      H1             36.8230970839       26.1260130358       44.3138659454  TIP3      5091            0.0000000000
     40173      5291  TIP3      H2             36.7658974284       24.6820125701       43.9446923267  TIP3      5091            0.0000000000
     40174      5292  TIP3      OH2            37.1807708016       32.3822300146       49.2014789089  TIP3      5092            0.0000000000
     40175      5292  TIP3      H1             38.1633990644       32.4671890766       49.1144011629  TIP3      5092            0.0000000000
     40176      5292  TIP3      H2             36.9015565053       33.2122537304       48.7377393560  TIP3      5092            0.0000000000
     40177      5293  TIP3      OH2            36.6028670579       22.1555287415       45.9936860235  TIP3      5093            0.0000000000
     40178      5293  TIP3      H1             37.5648691698       22.2807143289       46.1803369402  TIP3      5093            0.0000000000
     40179      5293  TIP3      H2             36.6396239950       21.8019882629       45.0836738525  TIP3      5093            0.0000000000
     40180      5294  TIP3      OH2            36.4722988296       36.5074059386       45.6204482468  TIP3      5094            0.0000000000
     40181      5294  TIP3      H1             36.0400890861       36.0936495940       44.8392022548  TIP3      5094            0.0000000000
     40182      5294  TIP3      H2             35.9655092018       36.1024080999       46.3408147991  TIP3      5094            0.0000000000
     40183      5295  TIP3      OH2            37.2298433507       34.5033276318       47.6177803179  TIP3      5095            0.0000000000
     40184      5295  TIP3      H1             37.3964656885       33.9653852672       46.8287338678  TIP3      5095            0.0000000000
     40185      5295  TIP3      H2             38.0765912096       34.9749481527       47.6114561209  TIP3      5095            0.0000000000
     40186      5296  TIP3      OH2            38.1652098002       26.9100067767       49.1699135562  TIP3      5096            0.0000000000
     40187      5296  TIP3      H1             38.7194279982       27.2379424293       48.4196887387  TIP3      5096            0.0000000000
     40188      5296  TIP3      H2             38.3685292756       27.5640948527       49.8626068644  TIP3      5096            0.0000000000
     40189      5297  TIP3      OH2            36.6459251257       24.7148317905       49.2714529731  TIP3      5097            0.0000000000
     40190      5297  TIP3      H1             37.3900878837       24.1806806013       48.9679799436  TIP3      5097            0.0000000000
     40191      5297  TIP3      H2             37.0859668594       25.5954985959       49.3061965740  TIP3      5097            0.0000000000
     40192      5298  TIP3      OH2            36.8413829258       21.0244665664       43.5593418515  TIP3      5098            0.0000000000
     40193      5298  TIP3      H1             35.8668612808       21.0090913928       43.4350607986  TIP3      5098            0.0000000000
     40194      5298  TIP3      H2             37.1498881523       20.9334566385       42.6406862865  TIP3      5098            0.0000000000
     40195      5299  TIP3      OH2           -30.0364973821       36.7644548141       49.0483351632  TIP3      5099            0.0000000000
     40196      5299  TIP3      H1            -29.6694178512       36.1408192621       48.4047254085  TIP3      5099            0.0000000000
     40197      5299  TIP3      H2            -30.9958800624       36.7518724123       48.8191942966  TIP3      5099            0.0000000000
     40198      5300  TIP3      OH2           -21.6218295912       36.7838143580       41.2905392003  TIP3      5100            0.0000000000
     40199      5300  TIP3      H1            -22.3973241922       36.7576127062       41.8925767116  TIP3      5100            0.0000000000
     40200      5300  TIP3      H2            -21.5246505516       37.7655091748       41.2487716306  TIP3      5100            0.0000000000
     40201      5301  TIP3      OH2           -32.6253848291       37.6105328413       48.9267254296  TIP3      5101            0.0000000000
     40202      5301  TIP3      H1            -33.3363895638       37.3007868913       49.5157609455  TIP3      5101            0.0000000000
     40203      5301  TIP3      H2            -32.5118580872       38.5252016438       49.2673516377  TIP3      5101            0.0000000000
     40204      5302  TIP3      OH2           -35.5223241623       37.5373840228       48.3159342460  TIP3      5102            0.0000000000
     40205      5302  TIP3      H1            -35.5046341946       37.4316819212       47.3417442477  TIP3      5102            0.0000000000
     40206      5302  TIP3      H2            -35.9177191013       36.7200684449       48.6369411631  TIP3      5102            0.0000000000
     40207      5303  TIP3      OH2           -22.1636406791       37.1198122559       47.2891958186  TIP3      5103            0.0000000000
     40208      5303  TIP3      H1            -22.0902291547       38.0271026019       47.6660997911  TIP3      5103            0.0000000000
     40209      5303  TIP3      H2            -23.1385796503       37.0795646105       47.2772189802  TIP3      5103            0.0000000000
     40210      5304  TIP3      OH2           -35.6713797254       37.3361608675       45.4631490419  TIP3      5104            0.0000000000
     40211      5304  TIP3      H1            -36.4572411414       37.1773705604       44.8915942885  TIP3      5104            0.0000000000
     40212      5304  TIP3      H2            -35.1285121798       36.5304657315       45.3277400346  TIP3      5104            0.0000000000
     40213      5305  TIP3      OH2           -36.2084281110       37.1036053509       41.2912480737  TIP3      5105            0.0000000000
     40214      5305  TIP3      H1            -35.9624479206       37.9349845940       40.8609214093  TIP3      5105            0.0000000000
     40215      5305  TIP3      H2            -36.8845089187       37.4407227284       41.9198534552  TIP3      5105            0.0000000000
     40216      5306  TIP3      OH2           -30.9218263263       36.9702934102       45.8200395679  TIP3      5106            0.0000000000
     40217      5306  TIP3      H1            -30.5905503873       37.6651517389       45.2177999906  TIP3      5106            0.0000000000
     40218      5306  TIP3      H2            -31.2434342315       37.5435712031       46.5370516753  TIP3      5106            0.0000000000
     40219      5307  TIP3      OH2           -24.8494874193       37.3683601742       46.7982742407  TIP3      5107            0.0000000000
     40220      5307  TIP3      H1            -25.6240414561       37.6629706407       46.3111122717  TIP3      5107            0.0000000000
     40221      5307  TIP3      H2            -25.2640704384       36.6816835529       47.3573071867  TIP3      5107            0.0000000000
     40222      5308  TIP3      OH2           -23.6644460753       37.3990697105       42.9044058211  TIP3      5108            0.0000000000
     40223      5308  TIP3      H1            -24.3684569098       37.2769707281       42.2494355968  TIP3      5108            0.0000000000
     40224      5308  TIP3      H2            -24.0468599577       36.9410007644       43.6791987936  TIP3      5108            0.0000000000
     40225      5309  TIP3      OH2           -11.3206561814       36.8087016280       49.0192552048  TIP3      5109            0.0000000000
     40226      5309  TIP3      H1            -11.0005632808       36.2109333310       48.3208227331  TIP3      5109            0.0000000000
     40227      5309  TIP3      H2            -12.2896412468       36.9026206139       48.7892478540  TIP3      5109            0.0000000000
     40228      5310  TIP3      OH2            -2.8402780282       36.8471587864       41.2805034356  TIP3      5110            0.0000000000
     40229      5310  TIP3      H1             -3.5987927104       36.9750598982       41.8956123027  TIP3      5110            0.0000000000
     40230      5310  TIP3      H2             -2.6095512922       37.7934797960       41.1849296651  TIP3      5110            0.0000000000
     40231      5311  TIP3      OH2           -13.8571098814       37.5633027810       48.8688048299  TIP3      5111            0.0000000000
     40232      5311  TIP3      H1            -14.7502907701       37.3403462160       49.1863176041  TIP3      5111            0.0000000000
     40233      5311  TIP3      H2            -13.7817341947       38.4938639799       49.2062097937  TIP3      5111            0.0000000000
     40234      5312  TIP3      OH2           -16.8535350396       37.4728810820       48.1775120267  TIP3      5112            0.0000000000
     40235      5312  TIP3      H1            -16.8508905673       37.3117957045       47.2099216467  TIP3      5112            0.0000000000
     40236      5312  TIP3      H2            -17.2269164142       36.6505532123       48.5370057277  TIP3      5112            0.0000000000
     40237      5313  TIP3      OH2            -3.2370605887       37.0981793861       47.2477063136  TIP3      5113            0.0000000000
     40238      5313  TIP3      H1             -3.1218432027       37.9457288651       47.7163190230  TIP3      5113            0.0000000000
     40239      5313  TIP3      H2             -4.1995942631       37.0238890911       47.3238640163  TIP3      5113            0.0000000000
     40240      5314  TIP3      OH2           -16.7423799873       37.0833731950       45.2997081650  TIP3      5114            0.0000000000
     40241      5314  TIP3      H1            -17.6060399927       36.9500923718       44.8518465364  TIP3      5114            0.0000000000
     40242      5314  TIP3      H2            -16.2539405253       36.2686192155       45.0318882605  TIP3      5114            0.0000000000
     40243      5315  TIP3      OH2           -17.6808836338       37.0090153027       41.3688485786  TIP3      5115            0.0000000000
     40244      5315  TIP3      H1            -17.2297086324       37.8800797288       41.3239954990  TIP3      5115            0.0000000000
     40245      5315  TIP3      H2            -18.3344253864       37.2792422682       42.0396839434  TIP3      5115            0.0000000000
     40246      5316  TIP3      OH2           -12.0445022233       36.9352648082       45.7832387366  TIP3      5116            0.0000000000
     40247      5316  TIP3      H1            -11.9270959929       37.7666461754       45.2876366927  TIP3      5116            0.0000000000
     40248      5316  TIP3      H2            -12.6464143129       37.2678783088       46.4599012406  TIP3      5116            0.0000000000
     40249      5317  TIP3      OH2            -6.1088295972       37.3980493258       46.6478994464  TIP3      5117            0.0000000000
     40250      5317  TIP3      H1             -6.7180361668       37.2535588036       45.9159399273  TIP3      5117            0.0000000000
     40251      5317  TIP3      H2             -6.4668064397       36.7629517402       47.3010031500  TIP3      5117            0.0000000000
     40252      5318  TIP3      OH2            -4.8732075925       37.5089838527       42.9868526965  TIP3      5118            0.0000000000
     40253      5318  TIP3      H1             -5.3949750279       37.3265452434       42.1956507087  TIP3      5118            0.0000000000
     40254      5318  TIP3      H2             -5.2724761283       36.8694481028       43.6093374570  TIP3      5118            0.0000000000
     40255      5319  TIP3      OH2             7.5634962158       36.7856354570       49.0420149622  TIP3      5119            0.0000000000
     40256      5319  TIP3      H1              7.8840704229       36.1039578900       48.4232079255  TIP3      5119            0.0000000000
     40257      5319  TIP3      H2              6.5878595869       36.8011097374       48.8670218778  TIP3      5119            0.0000000000
     40258      5320  TIP3      OH2            16.0213779120       36.8327216228       41.2929456356  TIP3      5120            0.0000000000
     40259      5320  TIP3      H1             15.2679821501       36.9172687732       41.9182357139  TIP3      5120            0.0000000000
     40260      5320  TIP3      H2             16.2057673750       37.7968022436       41.2167998839  TIP3      5120            0.0000000000
     40261      5321  TIP3      OH2             4.9825477668       37.6054861387       48.8466107793  TIP3      5121            0.0000000000
     40262      5321  TIP3      H1              4.1375231845       37.3630674312       49.2705390888  TIP3      5121            0.0000000000
     40263      5321  TIP3      H2              5.1309985887       38.5066552121       49.2325483252  TIP3      5121            0.0000000000
     40264      5322  TIP3      OH2             1.9375476911       37.5432847155       48.0987645437  TIP3      5122            0.0000000000
     40265      5322  TIP3      H1              2.0168757125       37.3603121326       47.1398689758  TIP3      5122            0.0000000000
     40266      5322  TIP3      H2              1.7039195137       36.6629639174       48.4351891542  TIP3      5122            0.0000000000
     40267      5323  TIP3      OH2            15.6617861762       37.1019275299       47.2963839399  TIP3      5123            0.0000000000
     40268      5323  TIP3      H1             15.8088738020       37.9667033909       47.7255127691  TIP3      5123            0.0000000000
     40269      5323  TIP3      H2             14.6884250071       37.1071675279       47.3020155851  TIP3      5123            0.0000000000
     40270      5324  TIP3      OH2             2.1706210201       37.0762598397       45.2414694834  TIP3      5124            0.0000000000
     40271      5324  TIP3      H1              1.2909486621       36.8677114570       44.8556818041  TIP3      5124            0.0000000000
     40272      5324  TIP3      H2              2.6906018135       36.2810632852       44.9792014670  TIP3      5124            0.0000000000
     40273      5325  TIP3      OH2             1.2170744902       37.0148197943       41.3539750519  TIP3      5125            0.0000000000
     40274      5325  TIP3      H1              1.6982125645       37.8669165792       41.2683061770  TIP3      5125            0.0000000000
     40275      5325  TIP3      H2              0.5735249954       37.3134461989       42.0153555177  TIP3      5125            0.0000000000
     40276      5326  TIP3      OH2             6.7825832652       37.0381266484       45.8315370809  TIP3      5126            0.0000000000
     40277      5326  TIP3      H1              6.8065402891       37.9152418768       45.3882701939  TIP3      5126            0.0000000000
     40278      5326  TIP3      H2              6.2376141249       37.2917131671       46.5866408744  TIP3      5126            0.0000000000
     40279      5327  TIP3      OH2            12.8892171545       37.4294857532       46.6530856710  TIP3      5127            0.0000000000
     40280      5327  TIP3      H1             12.3690039540       37.2627503177       45.8565535597  TIP3      5127            0.0000000000
     40281      5327  TIP3      H2             12.4358711462       36.8364223363       47.2961923371  TIP3      5127            0.0000000000
     40282      5328  TIP3      OH2            14.0156255474       37.5346356801       42.9518498821  TIP3      5128            0.0000000000
     40283      5328  TIP3      H1             13.4666797432       37.4266475316       42.1705039607  TIP3      5128            0.0000000000
     40284      5328  TIP3      H2             13.5712063531       36.9182236522       43.5723335614  TIP3      5128            0.0000000000
     40285      5329  TIP3      OH2            26.4403958804       36.8186832673       49.0304497308  TIP3      5129            0.0000000000
     40286      5329  TIP3      H1             26.7792062164       36.3205081030       48.2673188705  TIP3      5129            0.0000000000
     40287      5329  TIP3      H2             25.4709380203       36.8817463400       48.8364286972  TIP3      5129            0.0000000000
     40288      5330  TIP3      OH2            34.7030513978       36.6948096958       40.9663424040  TIP3      5130            0.0000000000
     40289      5330  TIP3      H1             33.9922722753       36.7093404146       41.6493566199  TIP3      5130            0.0000000000
     40290      5330  TIP3      H2             34.8160915855       37.6653782648       40.8533745693  TIP3      5130            0.0000000000
     40291      5331  TIP3      OH2            23.8638380548       37.5799880020       48.9169791148  TIP3      5131            0.0000000000
     40292      5331  TIP3      H1             23.0225489263       37.3111490342       49.3276301599  TIP3      5131            0.0000000000
     40293      5331  TIP3      H2             23.9582166487       38.4853813876       49.2930652096  TIP3      5131            0.0000000000
     40294      5332  TIP3      OH2            20.7950032501       37.5603118996       48.0944579815  TIP3      5132            0.0000000000
     40295      5332  TIP3      H1             20.8903496138       37.3887027605       47.1334140527  TIP3      5132            0.0000000000
     40296      5332  TIP3      H2             20.5233947458       36.6911890920       48.4278859983  TIP3      5132            0.0000000000
     40297      5333  TIP3      OH2            34.2473094707       36.8754330899       47.5375840638  TIP3      5133            0.0000000000
     40298      5333  TIP3      H1             34.4411142914       37.6676870531       48.0789752699  TIP3      5133            0.0000000000
     40299      5333  TIP3      H2             33.3035421623       37.0387951288       47.3419939982  TIP3      5133            0.0000000000
     40300      5334  TIP3      OH2            21.0197064753       37.0768445209       45.2508246487  TIP3      5134            0.0000000000
     40301      5334  TIP3      H1             20.1514942250       36.8218421928       44.8667967654  TIP3      5134            0.0000000000
     40302      5334  TIP3      H2             21.5488334759       36.2752182794       45.0496127395  TIP3      5134            0.0000000000
     40303      5335  TIP3      OH2            20.1450038342       36.9826788700       41.4634818698  TIP3      5135            0.0000000000
     40304      5335  TIP3      H1             20.5538851375       37.8681661425       41.3563198679  TIP3      5135            0.0000000000
     40305      5335  TIP3      H2             19.4674462144       37.2505543074       42.1054609073  TIP3      5135            0.0000000000
     40306      5336  TIP3      OH2            25.5521293155       37.0012032074       45.7842370451  TIP3      5136            0.0000000000
     40307      5336  TIP3      H1             25.8073850947       37.8505495572       45.3556466625  TIP3      5136            0.0000000000
     40308      5336  TIP3      H2             24.8930138404       37.3564153910       46.3899960764  TIP3      5136            0.0000000000
     40309      5337  TIP3      OH2            31.5214943376       37.3873472330       46.6949516164  TIP3      5137            0.0000000000
     40310      5337  TIP3      H1             30.9085546254       37.4252566837       45.9484543421  TIP3      5137            0.0000000000
     40311      5337  TIP3      H2             31.0540584081       36.7560621811       47.2802217580  TIP3      5137            0.0000000000
     40312      5338  TIP3      OH2            32.8162668578       37.2773434708       42.8805507316  TIP3      5138            0.0000000000
     40313      5338  TIP3      H1             32.1383274937       37.5062625277       42.2397132054  TIP3      5138            0.0000000000
     40314      5338  TIP3      H2             32.3698225494       36.5020965148       43.2943520467  TIP3      5138            0.0000000000
     40315      5339  TIP3      OH2           -26.3549326572      -28.2681809011      -43.2184210459  TIP3      5139            0.0000000000
     40316      5339  TIP3      H1            -26.5292235687      -27.3153560397      -43.1831008252  TIP3      5139            0.0000000000
     40317      5339  TIP3      H2            -27.0415844454      -28.5905079498      -43.8130985635  TIP3      5139            0.0000000000
     40318      5340  TIP3      OH2           -27.2005110892      -29.5464198793      -39.8617623312  TIP3      5140            0.0000000000
     40319      5340  TIP3      H1            -27.4341088470      -29.8233453239      -38.9544013362  TIP3      5140            0.0000000000
     40320      5340  TIP3      H2            -27.8775081100      -30.0106332972      -40.3896124264  TIP3      5140            0.0000000000
     40321      5341  TIP3      OH2           -35.0939073352      -29.3024665007      -38.2333455383  TIP3      5141            0.0000000000
     40322      5341  TIP3      H1            -35.4498032520      -30.0273130489      -37.6928790492  TIP3      5141            0.0000000000
     40323      5341  TIP3      H2            -34.4082331996      -28.9756115390      -37.6122731194  TIP3      5141            0.0000000000
     40324      5342  TIP3      OH2           -24.2033136382      -26.3576754343      -41.1370548402  TIP3      5142            0.0000000000
     40325      5342  TIP3      H1            -24.4329733233      -27.1421480972      -40.5961118841  TIP3      5142            0.0000000000
     40326      5342  TIP3      H2            -23.8599662284      -25.7607180963      -40.4636277187  TIP3      5142            0.0000000000
     40327      5343  TIP3      OH2           -34.6400263583      -24.8702124599      -39.9902883852  TIP3      5143            0.0000000000
     40328      5343  TIP3      H1            -34.7211177909      -25.7954465237      -40.3341729234  TIP3      5143            0.0000000000
     40329      5343  TIP3      H2            -33.6726308062      -24.8908333425      -39.8994558014  TIP3      5143            0.0000000000
     40330      5344  TIP3      OH2           -37.1047270078      -31.8239546830      -44.8411789440  TIP3      5144            0.0000000000
     40331      5344  TIP3      H1            -37.1623324356      -31.0148644454      -44.3135947955  TIP3      5144            0.0000000000
     40332      5344  TIP3      H2            -37.9619911640      -32.2511623844      -44.6165512039  TIP3      5144            0.0000000000
     40333      5345  TIP3      OH2           -37.2227630246      -29.1769717707      -41.6259274120  TIP3      5145            0.0000000000
     40334      5345  TIP3      H1            -36.7852121650      -30.0304309342      -41.4088860509  TIP3      5145            0.0000000000
     40335      5345  TIP3      H2            -36.6272389366      -28.7632255004      -42.2566259483  TIP3      5145            0.0000000000
     40336      5346  TIP3      OH2           -26.5239038582      -20.8315122183      -41.1810329636  TIP3      5146            0.0000000000
     40337      5346  TIP3      H1            -25.8439802375      -21.4012389823      -41.6214038616  TIP3      5146            0.0000000000
     40338      5346  TIP3      H2            -27.0599656545      -21.5353066857      -40.7990915112  TIP3      5146            0.0000000000
     40339      5347  TIP3      OH2           -29.2353563523      -26.5059119264      -38.9411989380  TIP3      5147            0.0000000000
     40340      5347  TIP3      H1            -28.9211937815      -27.0702156165      -39.6591347719  TIP3      5147            0.0000000000
     40341      5347  TIP3      H2            -28.3705533726      -26.2302290121      -38.5650956051  TIP3      5147            0.0000000000
     40342      5348  TIP3      OH2           -20.5593559629      -35.1536511259      -39.0025214536  TIP3      5148            0.0000000000
     40343      5348  TIP3      H1            -20.4898621004      -34.4991928618      -38.2706814313  TIP3      5148            0.0000000000
     40344      5348  TIP3      H2            -19.8933079664      -34.7781940953      -39.6005229601  TIP3      5148            0.0000000000
     40345      5349  TIP3      OH2           -25.6896062148      -32.0557021640      -38.6183340048  TIP3      5149            0.0000000000
     40346      5349  TIP3      H1            -25.4735079937      -32.9856605389      -38.4367811495  TIP3      5149            0.0000000000
     40347      5349  TIP3      H2            -25.8011742519      -32.0833341739      -39.5858320928  TIP3      5149            0.0000000000
     40348      5350  TIP3      OH2           -32.5923070222      -34.1662331847      -41.6855040797  TIP3      5150            0.0000000000
     40349      5350  TIP3      H1            -32.3877118112      -33.4301820599      -42.3087717224  TIP3      5150            0.0000000000
     40350      5350  TIP3      H2            -32.9376095213      -34.8166793038      -42.3323681878  TIP3      5150            0.0000000000
     40351      5351  TIP3      OH2           -25.1856665197      -34.1295230083      -43.5166933432  TIP3      5151            0.0000000000
     40352      5351  TIP3      H1            -24.7137218856      -34.2819838554      -42.6634793666  TIP3      5151            0.0000000000
     40353      5351  TIP3      H2            -24.6038015459      -33.4678957050      -43.9175985622  TIP3      5151            0.0000000000
     40354      5352  TIP3      OH2           -36.1624478654      -31.6795540201      -41.0068104213  TIP3      5152            0.0000000000
     40355      5352  TIP3      H1            -35.5424220344      -32.2654771025      -40.5429249415  TIP3      5152            0.0000000000
     40356      5352  TIP3      H2            -35.9922368552      -31.9170840123      -41.9362172090  TIP3      5152            0.0000000000
     40357      5353  TIP3      OH2           -31.2653285974      -30.0400812608      -41.4958151022  TIP3      5153            0.0000000000
     40358      5353  TIP3      H1            -30.5278639597      -30.5401375394      -41.0853854276  TIP3      5153            0.0000000000
     40359      5353  TIP3      H2            -31.5997369993      -30.7509639610      -42.0808393485  TIP3      5153            0.0000000000
     40360      5354  TIP3      OH2           -20.2660520049      -33.7875259327      -36.6947556812  TIP3      5154            0.0000000000
     40361      5354  TIP3      H1            -20.6901473997      -32.9013744727      -36.7774229951  TIP3      5154            0.0000000000
     40362      5354  TIP3      H2            -20.2938274185      -33.9171698037      -35.7343691643  TIP3      5154            0.0000000000
     40363      5355  TIP3      OH2           -33.8784688693      -35.1740182718      -37.6172906551  TIP3      5155            0.0000000000
     40364      5355  TIP3      H1            -34.2305241948      -34.7231300067      -38.4073256060  TIP3      5155            0.0000000000
     40365      5355  TIP3      H2            -34.6347910737      -35.0766341804      -36.9996432064  TIP3      5155            0.0000000000
     40366      5356  TIP3      OH2           -26.9198184578      -25.6494715184      -44.3596633852  TIP3      5156            0.0000000000
     40367      5356  TIP3      H1            -27.0191121708      -25.7197186701      -45.3279026765  TIP3      5156            0.0000000000
     40368      5356  TIP3      H2            -27.0097739748      -24.6941053279      -44.2169303287  TIP3      5156            0.0000000000
     40369      5357  TIP3      OH2           -31.1446114580      -27.7921024765      -37.5452331583  TIP3      5157            0.0000000000
     40370      5357  TIP3      H1            -31.7782270063      -27.1919791897      -37.1206415617  TIP3      5157            0.0000000000
     40371      5357  TIP3      H2            -30.5530574673      -27.1499395812      -37.9998493361  TIP3      5157            0.0000000000
     40372      5358  TIP3      OH2           -23.5762745316      -34.0956265308      -41.2893232274  TIP3      5158            0.0000000000
     40373      5358  TIP3      H1            -23.9283185088      -34.6172837336      -40.5476870654  TIP3      5158            0.0000000000
     40374      5358  TIP3      H2            -22.6720972681      -33.9027079099      -40.9928719220  TIP3      5158            0.0000000000
     40375      5359  TIP3      OH2           -34.4438917823      -33.3690178977      -39.6974471711  TIP3      5159            0.0000000000
     40376      5359  TIP3      H1            -33.8714391034      -32.7061457585      -39.2455554445  TIP3      5159            0.0000000000
     40377      5359  TIP3      H2            -33.8445204978      -33.6823936545      -40.4168321213  TIP3      5159            0.0000000000
     40378      5360  TIP3      OH2           -32.5965985305      -25.3220913617      -36.9842701676  TIP3      5160            0.0000000000
     40379      5360  TIP3      H1            -32.8154507251      -24.5828626368      -37.5700742793  TIP3      5160            0.0000000000
     40380      5360  TIP3      H2            -33.4807141833      -25.4993766606      -36.6053001900  TIP3      5160            0.0000000000
     40381      5361  TIP3      OH2           -37.3184480686      -25.9965726767      -46.0369794580  TIP3      5161            0.0000000000
     40382      5361  TIP3      H1            -37.2448103927      -25.6270342151      -46.9462442284  TIP3      5161            0.0000000000
     40383      5361  TIP3      H2            -36.9557861229      -25.2928768970      -45.4602157178  TIP3      5161            0.0000000000
     40384      5362  TIP3      OH2           -23.1721918663      -24.1691396587      -39.0867449057  TIP3      5162            0.0000000000
     40385      5362  TIP3      H1            -24.1390092486      -24.0517518371      -38.9587668017  TIP3      5162            0.0000000000
     40386      5362  TIP3      H2            -22.9745963379      -23.3031652396      -39.4698614880  TIP3      5162            0.0000000000
     40387      5363  TIP3      OH2           -22.9531880415      -36.1985692383      -37.6640683216  TIP3      5163            0.0000000000
     40388      5363  TIP3      H1            -23.7173033562      -35.9029763027      -38.1965990740  TIP3      5163            0.0000000000
     40389      5363  TIP3      H2            -22.2706577932      -36.2427296217      -38.3673619388  TIP3      5163            0.0000000000
     40390      5364  TIP3      OH2           -30.0372758537      -37.3010952538      -40.8070613831  TIP3      5164            0.0000000000
     40391      5364  TIP3      H1            -29.9727676659      -38.1566768764      -40.3202758378  TIP3      5164            0.0000000000
     40392      5364  TIP3      H2            -30.6579979168      -36.8007890938      -40.2407646695  TIP3      5164            0.0000000000
     40393      5365  TIP3      OH2           -24.9784752959      -22.5902016898      -42.4091683917  TIP3      5165            0.0000000000
     40394      5365  TIP3      H1            -24.8201337230      -23.3767226509      -42.9710960025  TIP3      5165            0.0000000000
     40395      5365  TIP3      H2            -24.1403642493      -22.1020216071      -42.6110592538  TIP3      5165            0.0000000000
     40396      5366  TIP3      OH2           -23.9706486883      -24.6121625094      -43.9238976016  TIP3      5166            0.0000000000
     40397      5366  TIP3      H1            -23.9808470030      -25.3231157815      -44.5990079551  TIP3      5166            0.0000000000
     40398      5366  TIP3      H2            -23.9733505290      -25.1460193381      -43.1069046625  TIP3      5166            0.0000000000
     40399      5367  TIP3      OH2           -22.2758394069      -25.9288325398      -35.2155979074  TIP3      5167            0.0000000000
     40400      5367  TIP3      H1            -22.0451330234      -26.6217183087      -35.8801701726  TIP3      5167            0.0000000000
     40401      5367  TIP3      H2            -22.1709217900      -25.1242766774      -35.7704061545  TIP3      5167            0.0000000000
     40402      5368  TIP3      OH2           -27.8760504510      -28.9992044796      -45.7766328992  TIP3      5168            0.0000000000
     40403      5368  TIP3      H1            -28.2522654898      -28.1083857218      -45.9546828750  TIP3      5168            0.0000000000
     40404      5368  TIP3      H2            -27.0576149534      -28.9965963810      -46.3326674702  TIP3      5168            0.0000000000
     40405      5369  TIP3      OH2           -27.3352266736      -30.5082480222      -48.6286184475  TIP3      5169            0.0000000000
     40406      5369  TIP3      H1            -26.5162187762      -30.2265076103      -48.1544393714  TIP3      5169            0.0000000000
     40407      5369  TIP3      H2            -27.1249401094      -31.4112337868      -48.9149271389  TIP3      5169            0.0000000000
     40408      5370  TIP3      OH2           -20.2562024621      -29.5443995408      -37.6538394233  TIP3      5170            0.0000000000
     40409      5370  TIP3      H1            -20.7468272759      -28.7305927258      -37.4545556658  TIP3      5170            0.0000000000
     40410      5370  TIP3      H2            -19.6200069789      -29.1953446439      -38.3115285444  TIP3      5170            0.0000000000
     40411      5371  TIP3      OH2           -24.1122052671      -29.3344780235      -44.6543287931  TIP3      5171            0.0000000000
     40412      5371  TIP3      H1            -24.8539741632      -28.9287824124      -44.1548473650  TIP3      5171            0.0000000000
     40413      5371  TIP3      H2            -23.4786373903      -29.5390416939      -43.9414835800  TIP3      5171            0.0000000000
     40414      5372  TIP3      OH2           -24.2449178106      -30.8757363739      -35.5504179802  TIP3      5172            0.0000000000
     40415      5372  TIP3      H1            -24.3289838483      -29.9287608894      -35.3436330242  TIP3      5172            0.0000000000
     40416      5372  TIP3      H2            -24.9422761106      -30.9706255274      -36.2242224498  TIP3      5172            0.0000000000
     40417      5373  TIP3      OH2           -32.7652622667      -28.2046580492      -42.8129759180  TIP3      5173            0.0000000000
     40418      5373  TIP3      H1            -33.4180880450      -28.6134781198      -43.4217706521  TIP3      5173            0.0000000000
     40419      5373  TIP3      H2            -32.2465587013      -28.9727210423      -42.4864264186  TIP3      5173            0.0000000000
     40420      5374  TIP3      OH2           -31.2659100294      -25.1202012042      -40.2604156763  TIP3      5174            0.0000000000
     40421      5374  TIP3      H1            -31.1548568423      -25.1219975252      -41.2273566862  TIP3      5174            0.0000000000
     40422      5374  TIP3      H2            -30.5202224072      -25.6548019014      -39.9126025588  TIP3      5174            0.0000000000
     40423      5375  TIP3      OH2           -32.3685771975      -29.5138866223      -39.1116432669  TIP3      5175            0.0000000000
     40424      5375  TIP3      H1            -31.9156786653      -29.3647329374      -39.9719423151  TIP3      5175            0.0000000000
     40425      5375  TIP3      H2            -31.9697227186      -28.8416499168      -38.5131836395  TIP3      5175            0.0000000000
     40426      5376  TIP3      OH2           -25.7247185568      -23.8880940392      -38.4033587649  TIP3      5176            0.0000000000
     40427      5376  TIP3      H1            -25.9125163256      -23.3488120597      -37.6178608260  TIP3      5176            0.0000000000
     40428      5376  TIP3      H2            -25.9198355617      -24.7906360529      -38.0715502829  TIP3      5176            0.0000000000
     40429      5377  TIP3      OH2           -31.3466427636      -25.0610442037      -34.6435948580  TIP3      5177            0.0000000000
     40430      5377  TIP3      H1            -32.1054528763      -24.6110687205      -34.2200069211  TIP3      5177            0.0000000000
     40431      5377  TIP3      H2            -31.6717717620      -25.1787603951      -35.5617700952  TIP3      5177            0.0000000000
     40432      5378  TIP3      OH2           -25.5385539435      -29.3834624051      -47.0179065571  TIP3      5178            0.0000000000
     40433      5378  TIP3      H1            -24.9304266682      -29.5204443091      -46.2550830531  TIP3      5178            0.0000000000
     40434      5378  TIP3      H2            -24.8985605494      -29.1623742855      -47.7343399668  TIP3      5178            0.0000000000
     40435      5379  TIP3      OH2           -34.0484065052      -28.4417981104      -35.8837586613  TIP3      5179            0.0000000000
     40436      5379  TIP3      H1            -34.0173843452      -27.8032559132      -35.1392963187  TIP3      5179            0.0000000000
     40437      5379  TIP3      H2            -34.8375906472      -28.9513097618      -35.6186788540  TIP3      5179            0.0000000000
     40438      5380  TIP3      OH2           -27.5227602403      -22.4600639335      -44.2676214722  TIP3      5180            0.0000000000
     40439      5380  TIP3      H1            -27.4448903643      -22.5544484328      -43.3111540691  TIP3      5180            0.0000000000
     40440      5380  TIP3      H2            -28.1653401841      -21.7339653545      -44.3969426844  TIP3      5180            0.0000000000
     40441      5381  TIP3      OH2           -33.1946213092      -23.2405869204      -33.6396682562  TIP3      5181            0.0000000000
     40442      5381  TIP3      H1            -33.2481528510      -23.0597881148      -34.6011993020  TIP3      5181            0.0000000000
     40443      5381  TIP3      H2            -34.1394487578      -23.2783332253      -33.4010208601  TIP3      5181            0.0000000000
     40444      5382  TIP3      OH2           -21.5375824288      -37.5273550187      -47.0321736269  TIP3      5182            0.0000000000
     40445      5382  TIP3      H1            -22.2630018391      -37.0883473993      -46.5637124226  TIP3      5182            0.0000000000
     40446      5382  TIP3      H2            -21.2425530550      -36.8243624110      -47.6487824823  TIP3      5182            0.0000000000
     40447      5383  TIP3      OH2           -34.3909782336      -29.3149810107      -44.7502583814  TIP3      5183            0.0000000000
     40448      5383  TIP3      H1            -34.4850554602      -28.5555564364      -45.3631857178  TIP3      5183            0.0000000000
     40449      5383  TIP3      H2            -34.2324292070      -30.0599713427      -45.3446719121  TIP3      5183            0.0000000000
     40450      5384  TIP3      OH2           -20.4591005708      -23.3625556374      -48.6282222152  TIP3      5184            0.0000000000
     40451      5384  TIP3      H1            -20.1706839901      -22.4358228176      -48.5070461181  TIP3      5184            0.0000000000
     40452      5384  TIP3      H2            -19.6315899032      -23.8614309782      -48.4754436492  TIP3      5184            0.0000000000
     40453      5385  TIP3      OH2           -36.8124101586      -26.7667855358      -36.1089760851  TIP3      5185            0.0000000000
     40454      5385  TIP3      H1            -37.7700467093      -26.8673694162      -36.2549655917  TIP3      5185            0.0000000000
     40455      5385  TIP3      H2            -36.4916214903      -27.5846815107      -36.5382344835  TIP3      5185            0.0000000000
     40456      5386  TIP3      OH2           -37.0677967511      -23.6744800031      -39.9823774576  TIP3      5186            0.0000000000
     40457      5386  TIP3      H1            -36.3602150200      -24.3583817666      -39.8865608532  TIP3      5186            0.0000000000
     40458      5386  TIP3      H2            -36.9429760094      -23.2084180185      -39.1357502374  TIP3      5186            0.0000000000
     40459      5387  TIP3      OH2           -19.6826687693      -23.3559071641      -33.5722201524  TIP3      5187            0.0000000000
     40460      5387  TIP3      H1            -19.8444728553      -24.2400380341      -33.9340646454  TIP3      5187            0.0000000000
     40461      5387  TIP3      H2            -20.5935820003      -23.1494999303      -33.2558570418  TIP3      5187            0.0000000000
     40462      5388  TIP3      OH2           -28.8553042561      -23.7809780262      -34.8802088829  TIP3      5188            0.0000000000
     40463      5388  TIP3      H1            -28.7041163885      -22.9150758501      -34.4483668195  TIP3      5188            0.0000000000
     40464      5388  TIP3      H2            -29.8087930822      -23.9412471254      -34.7227046910  TIP3      5188            0.0000000000
     40465      5389  TIP3      OH2           -28.4545086612      -20.1232229333      -45.5748531994  TIP3      5189            0.0000000000
     40466      5389  TIP3      H1            -28.0097412168      -19.9476022198      -46.4268772517  TIP3      5189            0.0000000000
     40467      5389  TIP3      H2            -28.1583519226      -19.3474198888      -45.0545094346  TIP3      5189            0.0000000000
     40468      5390  TIP3      OH2           -34.3189232196      -21.5643193063      -43.3213417967  TIP3      5190            0.0000000000
     40469      5390  TIP3      H1            -34.1345945941      -21.7732390824      -42.3773994674  TIP3      5190            0.0000000000
     40470      5390  TIP3      H2            -35.2857243462      -21.6877569427      -43.3699700407  TIP3      5190            0.0000000000
     40471      5391  TIP3      OH2           -25.3303233754      -20.4039909135      -47.9739454672  TIP3      5191            0.0000000000
     40472      5391  TIP3      H1            -24.7671251541      -21.1384222590      -48.3056059696  TIP3      5191            0.0000000000
     40473      5391  TIP3      H2            -25.1076891508      -20.3938063432      -47.0307213965  TIP3      5191            0.0000000000
     40474      5392  TIP3      OH2           -25.5297506149      -20.9541134984      -45.1869408774  TIP3      5192            0.0000000000
     40475      5392  TIP3      H1            -26.4673170059      -21.2260985704      -45.1634353572  TIP3      5192            0.0000000000
     40476      5392  TIP3      H2            -25.1461711776      -21.7151504744      -44.7143000353  TIP3      5192            0.0000000000
     40477      5393  TIP3      OH2           -22.8919044974      -32.0141300063      -33.3377627159  TIP3      5193            0.0000000000
     40478      5393  TIP3      H1            -23.2400484335      -31.5572787135      -34.1401085783  TIP3      5193            0.0000000000
     40479      5393  TIP3      H2            -22.9088383572      -32.9214883577      -33.6922564609  TIP3      5193            0.0000000000
     40480      5394  TIP3      OH2           -34.9094166442      -25.1539507918      -35.5029650300  TIP3      5194            0.0000000000
     40481      5394  TIP3      H1            -34.8209861674      -25.6822226862      -34.6841094600  TIP3      5194            0.0000000000
     40482      5394  TIP3      H2            -35.7092061516      -25.6199178746      -35.8616330549  TIP3      5194            0.0000000000
     40483      5395  TIP3      OH2           -32.5047883467      -36.3511686418      -39.7138196256  TIP3      5195            0.0000000000
     40484      5395  TIP3      H1            -33.3739463875      -36.1400804629      -40.1177491187  TIP3      5195            0.0000000000
     40485      5395  TIP3      H2            -32.5278605620      -35.7713837675      -38.9293008869  TIP3      5195            0.0000000000
     40486      5396  TIP3      OH2           -28.4124178471      -36.5192748819      -35.5363600282  TIP3      5196            0.0000000000
     40487      5396  TIP3      H1            -27.9831310553      -37.4059871894      -35.5583641367  TIP3      5196            0.0000000000
     40488      5396  TIP3      H2            -29.2932753086      -36.7530102565      -35.8716262085  TIP3      5196            0.0000000000
     40489      5397  TIP3      OH2           -24.7705095234      -33.7396943075      -35.2301325274  TIP3      5197            0.0000000000
     40490      5397  TIP3      H1            -25.3569102851      -33.8894236073      -34.4436778967  TIP3      5197            0.0000000000
     40491      5397  TIP3      H2            -24.8067357127      -32.7731822743      -35.2491400471  TIP3      5197            0.0000000000
     40492      5398  TIP3      OH2           -23.6765696741      -28.3940110753      -48.5724634831  TIP3      5198            0.0000000000
     40493      5398  TIP3      H1            -23.9527663117      -28.7900205645      -49.4355287744  TIP3      5198            0.0000000000
     40494      5398  TIP3      H2            -22.7549222221      -28.1436229726      -48.8100371442  TIP3      5198            0.0000000000
     40495      5399  TIP3      OH2           -28.5332004188      -34.7927891863      -48.4576749578  TIP3      5199            0.0000000000
     40496      5399  TIP3      H1            -28.8714313894      -35.3997151313      -47.7766876700  TIP3      5199            0.0000000000
     40497      5399  TIP3      H2            -28.7885436570      -35.2154306164      -49.2866142804  TIP3      5199            0.0000000000
     40498      5400  TIP3      OH2           -32.3331905097      -32.1521498580      -38.3772284575  TIP3      5200            0.0000000000
     40499      5400  TIP3      H1            -32.4407652320      -31.8331112770      -37.4580161991  TIP3      5200            0.0000000000
     40500      5400  TIP3      H2            -32.3728301005      -31.2838198621      -38.8399749271  TIP3      5200            0.0000000000
     40501      5401  TIP3      OH2           -32.3034622549      -31.9823509308      -43.1041889530  TIP3      5201            0.0000000000
     40502      5401  TIP3      H1            -33.2765989163      -32.1385613883      -43.2350787127  TIP3      5201            0.0000000000
     40503      5401  TIP3      H2            -32.0180465484      -32.2191777451      -44.0119482416  TIP3      5201            0.0000000000
     40504      5402  TIP3      OH2           -26.9098678035      -31.1249596712      -44.4194144889  TIP3      5202            0.0000000000
     40505      5402  TIP3      H1            -27.3312247726      -30.4165200568      -44.9661764599  TIP3      5202            0.0000000000
     40506      5402  TIP3      H2            -26.2030203593      -31.3984779222      -45.0431557449  TIP3      5202            0.0000000000
     40507      5403  TIP3      OH2           -27.6647259361      -31.3192009529      -32.6422413527  TIP3      5203            0.0000000000
     40508      5403  TIP3      H1            -28.3725976185      -31.6421135011      -33.2289907138  TIP3      5203            0.0000000000
     40509      5403  TIP3      H2            -26.9781523999      -32.0108336254      -32.7036107508  TIP3      5203            0.0000000000
     40510      5404  TIP3      OH2           -25.9328057256      -32.0272735179      -41.6135483016  TIP3      5204            0.0000000000
     40511      5404  TIP3      H1            -26.0753633724      -31.2257303434      -42.1438195914  TIP3      5204            0.0000000000
     40512      5404  TIP3      H2            -25.9655394561      -32.6984348171      -42.3073229612  TIP3      5204            0.0000000000
     40513      5405  TIP3      OH2           -35.1991300759      -31.8704442734      -36.7988246263  TIP3      5205            0.0000000000
     40514      5405  TIP3      H1            -34.4577523390      -31.4522092621      -36.3082463671  TIP3      5205            0.0000000000
     40515      5405  TIP3      H2            -35.0697887653      -32.7860163294      -36.4881708176  TIP3      5205            0.0000000000
     40516      5406  TIP3      OH2           -31.6788945797      -34.1994064219      -49.5699029258  TIP3      5206            0.0000000000
     40517      5406  TIP3      H1            -31.9245001282      -34.3723438901      -48.6498359778  TIP3      5206            0.0000000000
     40518      5406  TIP3      H2            -32.3740370579      -33.6009287941      -49.8741294003  TIP3      5206            0.0000000000
     40519      5407  TIP3      OH2           -37.3354298824      -33.9619045983      -42.3547711124  TIP3      5207            0.0000000000
     40520      5407  TIP3      H1            -36.8127931731      -34.2544765412      -41.5899711241  TIP3      5207            0.0000000000
     40521      5407  TIP3      H2            -37.0426994522      -34.5628949574      -43.0613487917  TIP3      5207            0.0000000000
     40522      5408  TIP3      OH2           -37.1258366129      -33.9952471834      -47.2381749583  TIP3      5208            0.0000000000
     40523      5408  TIP3      H1            -36.3536515844      -33.5324711493      -47.6123596811  TIP3      5208            0.0000000000
     40524      5408  TIP3      H2            -37.7434331377      -33.2616822711      -47.1077145503  TIP3      5208            0.0000000000
     40525      5409  TIP3      OH2           -27.0681810913      -30.1566304296      -37.1907339987  TIP3      5209            0.0000000000
     40526      5409  TIP3      H1            -26.4147505514      -30.6713386824      -37.7068721737  TIP3      5209            0.0000000000
     40527      5409  TIP3      H2            -27.4483265743      -30.8928233270      -36.6496443773  TIP3      5209            0.0000000000
     40528      5410  TIP3      OH2           -29.6316944510      -34.4743810032      -42.4092725019  TIP3      5210            0.0000000000
     40529      5410  TIP3      H1            -30.4926124542      -34.7233823020      -42.0227218564  TIP3      5210            0.0000000000
     40530      5410  TIP3      H2            -29.0447360533      -34.6451464118      -41.6454789829  TIP3      5210            0.0000000000
     40531      5411  TIP3      OH2           -34.8213459703      -32.5311184395      -43.7225401463  TIP3      5211            0.0000000000
     40532      5411  TIP3      H1            -35.5863953872      -32.3432078441      -44.3108898168  TIP3      5211            0.0000000000
     40533      5411  TIP3      H2            -34.6003828806      -33.4476074029      -43.9749278462  TIP3      5211            0.0000000000
     40534      5412  TIP3      OH2           -31.7389112919      -32.7711412886      -45.6250248773  TIP3      5212            0.0000000000
     40535      5412  TIP3      H1            -30.7579832737      -32.7411026044      -45.6519271517  TIP3      5212            0.0000000000
     40536      5412  TIP3      H2            -31.9959683304      -32.2336183329      -46.4094491895  TIP3      5212            0.0000000000
     40537      5413  TIP3      OH2           -25.5026557231      -35.2754170202      -39.2227486183  TIP3      5213            0.0000000000
     40538      5413  TIP3      H1            -26.0564529694      -35.1302397916      -38.4255077604  TIP3      5213            0.0000000000
     40539      5413  TIP3      H2            -26.1523426660      -35.6387804704      -39.8472834170  TIP3      5213            0.0000000000
     40540      5414  TIP3      OH2           -32.6590872640      -31.4425612817      -47.7448318506  TIP3      5214            0.0000000000
     40541      5414  TIP3      H1            -33.4775356530      -31.8916460217      -48.0348820735  TIP3      5214            0.0000000000
     40542      5414  TIP3      H2            -32.1957903903      -31.2523505647      -48.5648819141  TIP3      5214            0.0000000000
     40543      5415  TIP3      OH2           -22.3238211393      -19.2269089475      -32.7532706556  TIP3      5215            0.0000000000
     40544      5415  TIP3      H1            -21.9786779691      -18.7434596727      -33.5308043584  TIP3      5215            0.0000000000
     40545      5415  TIP3      H2            -21.5320858542      -19.1454632750      -32.1817099238  TIP3      5215            0.0000000000
     40546      5416  TIP3      OH2           -34.1633591439      -26.9511453313      -33.5919476279  TIP3      5216            0.0000000000
     40547      5416  TIP3      H1            -33.6227738129      -26.9074012775      -32.7609727607  TIP3      5216            0.0000000000
     40548      5416  TIP3      H2            -34.9855933183      -27.3207521022      -33.2266915521  TIP3      5216            0.0000000000
     40549      5417  TIP3      OH2           -28.9294803758      -31.5888890261      -40.4755433813  TIP3      5217            0.0000000000
     40550      5417  TIP3      H1            -28.3348996373      -32.0939898669      -41.0499262586  TIP3      5217            0.0000000000
     40551      5417  TIP3      H2            -28.9347232267      -32.1250320611      -39.6679453102  TIP3      5217            0.0000000000
     40552      5418  TIP3      OH2           -33.6414346446      -35.1801164960      -43.9157057115  TIP3      5218            0.0000000000
     40553      5418  TIP3      H1            -34.1988862769      -35.9316775239      -43.5998878428  TIP3      5218            0.0000000000
     40554      5418  TIP3      H2            -33.1496953873      -35.6050680867      -44.6304641385  TIP3      5218            0.0000000000
     40555      5419  TIP3      OH2           -29.6142341245      -33.6183720184      -38.2015410355  TIP3      5219            0.0000000000
     40556      5419  TIP3      H1            -30.2466438344      -32.9010316658      -38.3516198561  TIP3      5219            0.0000000000
     40557      5419  TIP3      H2            -28.9474910541      -33.1828572112      -37.6431764484  TIP3      5219            0.0000000000
     40558      5420  TIP3      OH2           -29.3638132252      -26.7414105684      -46.1316840921  TIP3      5220            0.0000000000
     40559      5420  TIP3      H1            -30.1239585387      -27.2223050224      -46.5264493118  TIP3      5220            0.0000000000
     40560      5420  TIP3      H2            -29.7464294805      -26.6092255625      -45.2330571516  TIP3      5220            0.0000000000
     40561      5421  TIP3      OH2           -21.8962764413      -27.4844031827      -37.2732262364  TIP3      5221            0.0000000000
     40562      5421  TIP3      H1            -21.4366046209      -26.9608895928      -37.9755398775  TIP3      5221            0.0000000000
     40563      5421  TIP3      H2            -22.7555209976      -27.6048607170      -37.7104943752  TIP3      5221            0.0000000000
     40564      5422  TIP3      OH2           -25.9877535609      -34.1071486579      -47.8154795635  TIP3      5222            0.0000000000
     40565      5422  TIP3      H1            -26.8951637800      -33.8789833942      -48.1151777169  TIP3      5222            0.0000000000
     40566      5422  TIP3      H2            -25.5308157209      -33.2460094035      -47.8464985356  TIP3      5222            0.0000000000
     40567      5423  TIP3      OH2           -28.4032120175      -26.5251962720      -35.2593417332  TIP3      5223            0.0000000000
     40568      5423  TIP3      H1            -28.7892403890      -27.0849000937      -34.5740695954  TIP3      5223            0.0000000000
     40569      5423  TIP3      H2            -28.6895980913      -25.6239066452      -35.0072495420  TIP3      5223            0.0000000000
     40570      5424  TIP3      OH2           -25.0608921069      -31.9831965369      -46.3775860605  TIP3      5224            0.0000000000
     40571      5424  TIP3      H1            -24.2232005682      -32.2127077011      -45.9316489453  TIP3      5224            0.0000000000
     40572      5424  TIP3      H2            -24.6880093193      -31.6030371568      -47.1932078201  TIP3      5224            0.0000000000
     40573      5425  TIP3      OH2           -34.1850905069      -27.3741454369      -40.7190429566  TIP3      5225            0.0000000000
     40574      5425  TIP3      H1            -33.6722280445      -27.5905603275      -41.5316122059  TIP3      5225            0.0000000000
     40575      5425  TIP3      H2            -33.9741025217      -28.1309732597      -40.1420587093  TIP3      5225            0.0000000000
     40576      5426  TIP3      OH2           -27.1970327957      -25.4453110976      -47.2737731598  TIP3      5226            0.0000000000
     40577      5426  TIP3      H1            -27.6129277899      -24.5599750921      -47.1679243829  TIP3      5226            0.0000000000
     40578      5426  TIP3      H2            -27.9544447264      -26.0274531437      -47.0583708024  TIP3      5226            0.0000000000
     40579      5427  TIP3      OH2           -36.6245587104      -29.5209220641      -35.6751231077  TIP3      5227            0.0000000000
     40580      5427  TIP3      H1            -36.6663552605      -29.9696634749      -34.8260924901  TIP3      5227            0.0000000000
     40581      5427  TIP3      H2            -37.5865054062      -29.5311108278      -35.9010131443  TIP3      5227            0.0000000000
     40582      5428  TIP3      OH2           -30.4372681636      -29.1402197235      -32.8929660825  TIP3      5228            0.0000000000
     40583      5428  TIP3      H1            -30.9220753547      -29.9352954890      -33.2061104971  TIP3      5228            0.0000000000
     40584      5428  TIP3      H2            -29.5437685184      -29.4996748692      -33.0276227291  TIP3      5228            0.0000000000
     40585      5429  TIP3      OH2           -25.4212428184      -24.1703875540      -34.9744715198  TIP3      5229            0.0000000000
     40586      5429  TIP3      H1            -26.2636218148      -24.1104403183      -35.4392537207  TIP3      5229            0.0000000000
     40587      5429  TIP3      H2            -25.6979002384      -23.8806466446      -34.0767345055  TIP3      5229            0.0000000000
     40588      5430  TIP3      OH2           -20.1690951078      -31.8333736410      -46.2092062943  TIP3      5230            0.0000000000
     40589      5430  TIP3      H1            -20.5152646016      -32.2552668210      -47.0345064466  TIP3      5230            0.0000000000
     40590      5430  TIP3      H2            -20.0727452878      -30.9221567383      -46.5307459805  TIP3      5230            0.0000000000
     40591      5431  TIP3      OH2           -19.8942921884      -26.3426390236      -34.0100883731  TIP3      5231            0.0000000000
     40592      5431  TIP3      H1            -20.7659796773      -26.2027746448      -34.4457450931  TIP3      5231            0.0000000000
     40593      5431  TIP3      H2            -19.3048046490      -26.3832676715      -34.8002443381  TIP3      5231            0.0000000000
     40594      5432  TIP3      OH2           -21.6005690403      -23.5933148108      -46.1684101831  TIP3      5232            0.0000000000
     40595      5432  TIP3      H1            -22.4573761631      -24.0456837551      -46.1288800683  TIP3      5232            0.0000000000
     40596      5432  TIP3      H2            -21.3606141869      -23.6655315210      -47.1192821302  TIP3      5232            0.0000000000
     40597      5433  TIP3      OH2           -24.5498532131      -28.4680636325      -39.4764187241  TIP3      5233            0.0000000000
     40598      5433  TIP3      H1            -25.4257637228      -28.8146621427      -39.7678640014  TIP3      5233            0.0000000000
     40599      5433  TIP3      H2            -23.9670898352      -29.1450409837      -39.8427479446  TIP3      5233            0.0000000000
     40600      5434  TIP3      OH2           -32.1138443058      -24.1533823739      -42.8827167937  TIP3      5234            0.0000000000
     40601      5434  TIP3      H1            -31.7649472034      -23.3012741325      -43.2279964688  TIP3      5234            0.0000000000
     40602      5434  TIP3      H2            -32.9276542643      -24.2300578743      -43.4004160550  TIP3      5234            0.0000000000
     40603      5435  TIP3      OH2           -36.0567629968      -29.3649558795      -48.5725853590  TIP3      5235            0.0000000000
     40604      5435  TIP3      H1            -35.4991981886      -28.6467641966      -48.2233854313  TIP3      5235            0.0000000000
     40605      5435  TIP3      H2            -36.8872904384      -29.2809259082      -48.0810943240  TIP3      5235            0.0000000000
     40606      5436  TIP3      OH2           -30.7081991213      -26.5646874042      -43.6899917681  TIP3      5236            0.0000000000
     40607      5436  TIP3      H1            -31.2699582815      -25.7930328146      -43.4972313614  TIP3      5236            0.0000000000
     40608      5436  TIP3      H2            -31.1286913069      -27.2767477143      -43.1629307076  TIP3      5236            0.0000000000
     40609      5437  TIP3      OH2           -29.9179570276      -22.3062455995      -36.8988599658  TIP3      5237            0.0000000000
     40610      5437  TIP3      H1            -29.3156530889      -21.6361534117      -37.2724695587  TIP3      5237            0.0000000000
     40611      5437  TIP3      H2            -29.3157585933      -22.8138114871      -36.3161757860  TIP3      5237            0.0000000000
     40612      5438  TIP3      OH2           -31.7050361016      -21.7347251043      -44.0639818175  TIP3      5238            0.0000000000
     40613      5438  TIP3      H1            -32.6266127548      -21.4975599545      -43.8251624802  TIP3      5238            0.0000000000
     40614      5438  TIP3      H2            -31.2638944448      -20.8721975404      -43.9035610894  TIP3      5238            0.0000000000
     40615      5439  TIP3      OH2           -26.9374097638      -26.3172031979      -37.5783360003  TIP3      5239            0.0000000000
     40616      5439  TIP3      H1            -27.4666371283      -26.5859098233      -36.7871451702  TIP3      5239            0.0000000000
     40617      5439  TIP3      H2            -26.5094414185      -27.1597490157      -37.7787745923  TIP3      5239            0.0000000000
     40618      5440  TIP3      OH2           -24.4474910670      -25.3730320674      -48.5873268666  TIP3      5240            0.0000000000
     40619      5440  TIP3      H1            -24.2135520127      -26.2079114459      -48.1404831786  TIP3      5240            0.0000000000
     40620      5440  TIP3      H2            -25.3256287504      -25.2614898412      -48.1819532584  TIP3      5240            0.0000000000
     40621      5441  TIP3      OH2           -23.7299416823      -21.8627130846      -35.1195697761  TIP3      5241            0.0000000000
     40622      5441  TIP3      H1            -24.5629913418      -22.3613819725      -35.2671322792  TIP3      5241            0.0000000000
     40623      5441  TIP3      H2            -23.6613086075      -21.2692598190      -35.9027376666  TIP3      5241            0.0000000000
     40624      5442  TIP3      OH2           -19.7178785864      -20.8008926160      -48.0880618136  TIP3      5242            0.0000000000
     40625      5442  TIP3      H1            -19.1210809087      -20.0714857099      -48.3363932972  TIP3      5242            0.0000000000
     40626      5442  TIP3      H2            -20.3877268317      -20.2751846297      -47.5839867782  TIP3      5242            0.0000000000
     40627      5443  TIP3      OH2           -35.6703465484      -34.2880511643      -35.5228552464  TIP3      5243            0.0000000000
     40628      5443  TIP3      H1            -36.5311950552      -33.8419547429      -35.5640678214  TIP3      5243            0.0000000000
     40629      5443  TIP3      H2            -35.9439231709      -35.2119013807      -35.3742167276  TIP3      5243            0.0000000000
     40630      5444  TIP3      OH2           -23.5514371560      -26.5781109652      -46.1194889930  TIP3      5244            0.0000000000
     40631      5444  TIP3      H1            -23.8012836038      -27.4868063983      -46.3687695305  TIP3      5244            0.0000000000
     40632      5444  TIP3      H2            -22.5895489348      -26.6193131618      -46.2671041974  TIP3      5244            0.0000000000
     40633      5445  TIP3      OH2           -35.9742625024      -22.6888435846      -37.4550551335  TIP3      5245            0.0000000000
     40634      5445  TIP3      H1            -35.2631763557      -23.3026746183      -37.2546290870  TIP3      5245            0.0000000000
     40635      5445  TIP3      H2            -36.1466096316      -22.3101932670      -36.5775058181  TIP3      5245            0.0000000000
     40636      5446  TIP3      OH2           -31.6477928379      -24.7880247547      -47.6027023596  TIP3      5246            0.0000000000
     40637      5446  TIP3      H1            -30.8146257456      -25.1702961340      -47.2693519933  TIP3      5246            0.0000000000
     40638      5446  TIP3      H2            -31.5177961309      -23.8376386247      -47.3766115892  TIP3      5246            0.0000000000
     40639      5447  TIP3      OH2           -34.8592330416      -27.3740295132      -46.8467160305  TIP3      5247            0.0000000000
     40640      5447  TIP3      H1            -35.7338315492      -26.9476467483      -46.7605600608  TIP3      5247            0.0000000000
     40641      5447  TIP3      H2            -34.3127678818      -26.6751045618      -47.2542322035  TIP3      5247            0.0000000000
     40642      5448  TIP3      OH2           -26.8040282531      -34.8435571081      -36.8826615338  TIP3      5248            0.0000000000
     40643      5448  TIP3      H1            -26.0588579866      -34.6877916447      -36.2756460293  TIP3      5248            0.0000000000
     40644      5448  TIP3      H2            -27.3702304639      -35.4153140278      -36.3144373388  TIP3      5248            0.0000000000
     40645      5449  TIP3      OH2           -26.4366983843      -35.4616934868      -45.5023997300  TIP3      5249            0.0000000000
     40646      5449  TIP3      H1            -26.3996571667      -34.8981482068      -46.3186626018  TIP3      5249            0.0000000000
     40647      5449  TIP3      H2            -25.8883197919      -34.9274208051      -44.8813329197  TIP3      5249            0.0000000000
     40648      5450  TIP3      OH2           -28.5111797025      -22.9573245125      -47.1734712904  TIP3      5250            0.0000000000
     40649      5450  TIP3      H1            -29.4002120265      -22.8053758350      -46.8101645407  TIP3      5250            0.0000000000
     40650      5450  TIP3      H2            -28.1455549011      -22.0492171689      -47.1556898770  TIP3      5250            0.0000000000
     40651      5451  TIP3      OH2           -29.1397256044      -33.2817281670      -45.0338961028  TIP3      5251            0.0000000000
     40652      5451  TIP3      H1            -28.3443707760      -32.7595859279      -44.8761002496  TIP3      5251            0.0000000000
     40653      5451  TIP3      H2            -29.4310979456      -33.5374706682      -44.1325622717  TIP3      5251            0.0000000000
     40654      5452  TIP3      OH2           -27.8012077135      -32.4246635983      -35.9129823525  TIP3      5252            0.0000000000
     40655      5452  TIP3      H1            -28.7198252434      -32.2806048339      -35.5775697511  TIP3      5252            0.0000000000
     40656      5452  TIP3      H2            -27.7449733231      -33.3967071982      -35.9308850514  TIP3      5252            0.0000000000
     40657      5453  TIP3      OH2           -28.3112202062      -36.4423773202      -44.0020164044  TIP3      5253            0.0000000000
     40658      5453  TIP3      H1            -28.4389653992      -35.6232496140      -43.4819047814  TIP3      5253            0.0000000000
     40659      5453  TIP3      H2            -27.5562988309      -36.1826845252      -44.5905970407  TIP3      5253            0.0000000000
     40660      5454  TIP3      OH2           -31.1701900057      -22.2298901654      -46.8450696025  TIP3      5254            0.0000000000
     40661      5454  TIP3      H1            -31.0257489942      -21.3335293001      -47.2095597796  TIP3      5254            0.0000000000
     40662      5454  TIP3      H2            -31.2692986840      -22.0273207645      -45.8900120222  TIP3      5254            0.0000000000
     40663      5455  TIP3      OH2           -32.7551070162      -34.9901473961      -47.0184418971  TIP3      5255            0.0000000000
     40664      5455  TIP3      H1            -32.6829570027      -34.2824639855      -46.3459215770  TIP3      5255            0.0000000000
     40665      5455  TIP3      H2            -31.8635355139      -35.3773397793      -46.9016014797  TIP3      5255            0.0000000000
     40666      5456  TIP3      OH2           -22.3104251273      -34.4049185785      -34.7888060363  TIP3      5256            0.0000000000
     40667      5456  TIP3      H1            -23.2889857065      -34.4032852601      -34.9034634764  TIP3      5256            0.0000000000
     40668      5456  TIP3      H2            -22.0457008147      -34.7568595367      -35.6579970673  TIP3      5256            0.0000000000
     40669      5457  TIP3      OH2           -23.6651913602      -30.8387607052      -40.6593069559  TIP3      5257            0.0000000000
     40670      5457  TIP3      H1            -24.3840415416      -31.4947642330      -40.6981430429  TIP3      5257            0.0000000000
     40671      5457  TIP3      H2            -22.9778544214      -31.3145022522      -40.1515219710  TIP3      5257            0.0000000000
     40672      5458  TIP3      OH2           -34.2800231143      -24.6597984836      -48.4614946353  TIP3      5258            0.0000000000
     40673      5458  TIP3      H1            -33.5940402323      -24.4250204258      -47.8101658452  TIP3      5258            0.0000000000
     40674      5458  TIP3      H2            -33.7576922906      -25.2903078260      -48.9868578125  TIP3      5258            0.0000000000
     40675      5459  TIP3      OH2           -35.2845838762      -31.9812849355      -48.3031614893  TIP3      5259            0.0000000000
     40676      5459  TIP3      H1            -35.3707793950      -30.9981326479      -48.3066828014  TIP3      5259            0.0000000000
     40677      5459  TIP3      H2            -35.8448874502      -32.1611305359      -49.0847907464  TIP3      5259            0.0000000000
     40678      5460  TIP3      OH2           -22.5269312570      -21.3885099950      -39.1406972564  TIP3      5260            0.0000000000
     40679      5460  TIP3      H1            -22.5501262843      -20.7693308130      -39.9001513691  TIP3      5260            0.0000000000
     40680      5460  TIP3      H2            -21.5570785749      -21.5053132523      -39.1203720695  TIP3      5260            0.0000000000
     40681      5461  TIP3      OH2           -35.1648505291      -36.5394360242      -40.5779991379  TIP3      5261            0.0000000000
     40682      5461  TIP3      H1            -35.2492300675      -36.6730695135      -41.5582036089  TIP3      5261            0.0000000000
     40683      5461  TIP3      H2            -35.2396861062      -37.4787274089      -40.2965575495  TIP3      5261            0.0000000000
     40684      5462  TIP3      OH2           -36.3138320043      -23.7304170054      -44.6504533304  TIP3      5262            0.0000000000
     40685      5462  TIP3      H1            -37.1161012345      -23.2285717177      -44.4621241796  TIP3      5262            0.0000000000
     40686      5462  TIP3      H2            -35.8043250711      -23.1010931483      -45.1748145251  TIP3      5262            0.0000000000
     40687      5463  TIP3      OH2           -36.8408818057      -20.8063619658      -33.0975641093  TIP3      5263            0.0000000000
     40688      5463  TIP3      H1            -36.2191185954      -20.7830844934      -32.3523689324  TIP3      5263            0.0000000000
     40689      5463  TIP3      H2            -37.1552454495      -21.7159609775      -32.9756145584  TIP3      5263            0.0000000000
     40690      5464  TIP3      OH2           -31.8727191891      -22.0478514886      -31.3140431504  TIP3      5264            0.0000000000
     40691      5464  TIP3      H1            -30.9951251131      -22.3527002129      -31.6109036999  TIP3      5264            0.0000000000
     40692      5464  TIP3      H2            -32.4176178665      -22.2803879052      -32.0893844421  TIP3      5264            0.0000000000
     40693      5465  TIP3      OH2           -28.2780604071      -22.5917768679       49.7489057135  TIP3      5265            0.0000000000
     40694      5465  TIP3      H1            -28.9690836361      -23.2779791579       49.8268684656  TIP3      5265            0.0000000000
     40695      5465  TIP3      H2            -27.5194671822      -23.0558574549       50.1428728988  TIP3      5265            0.0000000000
     40696      5466  TIP3      OH2           -26.0005637935      -23.4375741784      -32.4273557108  TIP3      5266            0.0000000000
     40697      5466  TIP3      H1            -26.2696716468      -24.2931090265      -32.0200776223  TIP3      5266            0.0000000000
     40698      5466  TIP3      H2            -25.1454035376      -23.3089134709      -31.9668708412  TIP3      5266            0.0000000000
     40699      5467  TIP3      OH2           -24.0771011891      -22.7357975686      -48.7768823046  TIP3      5267            0.0000000000
     40700      5467  TIP3      H1            -24.1305957294      -23.7103505706      -48.8212677673  TIP3      5267            0.0000000000
     40701      5467  TIP3      H2            -23.6123434012      -22.4483194919      -49.5849764781  TIP3      5267            0.0000000000
     40702      5468  TIP3      OH2           -36.4183426403      -26.6607757876      -31.8378082551  TIP3      5268            0.0000000000
     40703      5468  TIP3      H1            -36.2834275695      -27.6133755852      -31.6853987420  TIP3      5268            0.0000000000
     40704      5468  TIP3      H2            -37.3451178026      -26.7339637295      -32.1570052133  TIP3      5268            0.0000000000
     40705      5469  TIP3      OH2           -32.3864730965      -26.8876922206      -49.4721382388  TIP3      5269            0.0000000000
     40706      5469  TIP3      H1            -32.1696758036      -27.2257341503      -48.5794355546  TIP3      5269            0.0000000000
     40707      5469  TIP3      H2            -31.6339620510      -26.3036539672      -49.6406681111  TIP3      5269            0.0000000000
     40708      5470  TIP3      OH2           -30.4795477798      -26.4792390042      -32.5988147650  TIP3      5270            0.0000000000
     40709      5470  TIP3      H1            -30.7774322537      -26.0197669444      -33.4164899722  TIP3      5270            0.0000000000
     40710      5470  TIP3      H2            -30.6543362391      -27.4330623971      -32.8066989107  TIP3      5270            0.0000000000
     40711      5471  TIP3      OH2           -24.8374656603      -27.1355092473      -34.9050639356  TIP3      5271            0.0000000000
     40712      5471  TIP3      H1            -23.9876284938      -26.6567259672      -35.0013894141  TIP3      5271            0.0000000000
     40713      5471  TIP3      H2            -25.3779045317      -26.3628747972      -34.6854171877  TIP3      5271            0.0000000000
     40714      5472  TIP3      OH2           -35.6195248255      -29.7046959143      -32.3012975434  TIP3      5272            0.0000000000
     40715      5472  TIP3      H1            -35.1722309857      -30.5632425935      -32.3121296613  TIP3      5272            0.0000000000
     40716      5472  TIP3      H2            -35.8742134093      -29.6186140398      -31.3523525630  TIP3      5272            0.0000000000
     40717      5473  TIP3      OH2           -31.4238626181      -28.2100336128      -47.2185432726  TIP3      5273            0.0000000000
     40718      5473  TIP3      H1            -32.0854165013      -28.7343267665      -46.7551098557  TIP3      5273            0.0000000000
     40719      5473  TIP3      H2            -30.9589863290      -28.8867786245      -47.7546124781  TIP3      5273            0.0000000000
     40720      5474  TIP3      OH2           -32.7830669285      -30.7703264080      -35.9996868981  TIP3      5274            0.0000000000
     40721      5474  TIP3      H1            -32.9734616079      -29.8417158182      -36.2460573787  TIP3      5274            0.0000000000
     40722      5474  TIP3      H2            -31.8226331758      -30.7144806256      -35.7918354286  TIP3      5274            0.0000000000
     40723      5475  TIP3      OH2           -30.1588467957      -30.3572904007      -49.0870665930  TIP3      5275            0.0000000000
     40724      5475  TIP3      H1            -30.0584494497      -31.0291029196      -49.7866104797  TIP3      5275            0.0000000000
     40725      5475  TIP3      H2            -29.2109155007      -30.2146407180      -48.8482247610  TIP3      5275            0.0000000000
     40726      5476  TIP3      OH2           -26.9038857132      -28.0864955533      -31.9685289655  TIP3      5276            0.0000000000
     40727      5476  TIP3      H1            -26.3808752628      -28.3818326523      -32.7237808633  TIP3      5276            0.0000000000
     40728      5476  TIP3      H2            -27.2788713941      -28.9167501514      -31.6373006052  TIP3      5276            0.0000000000
     40729      5477  TIP3      OH2           -21.3758382165      -28.0794348289       50.1567532394  TIP3      5277            0.0000000000
     40730      5477  TIP3      H1            -20.8459636931      -28.6494606806       49.5729887250  TIP3      5277            0.0000000000
     40731      5477  TIP3      H2            -20.9018142170      -27.2398619399       50.0550085870  TIP3      5277            0.0000000000
     40732      5478  TIP3      OH2           -32.3575348585      -34.3242905686      -34.0491565182  TIP3      5278            0.0000000000
     40733      5478  TIP3      H1            -32.1864150829      -34.5599850067      -34.9782813153  TIP3      5278            0.0000000000
     40734      5478  TIP3      H2            -31.7058462613      -33.6016328639      -33.9358714197  TIP3      5278            0.0000000000
     40735      5479  TIP3      OH2           -31.3443014287      -34.8589152495      -36.5200233183  TIP3      5279            0.0000000000
     40736      5479  TIP3      H1            -30.7042101021      -34.4870357552      -37.1697829244  TIP3      5279            0.0000000000
     40737      5479  TIP3      H2            -32.1996521779      -34.5549923909      -36.8644831224  TIP3      5279            0.0000000000
     40738      5480  TIP3      OH2           -29.9293096619      -30.1361235240      -37.3442405888  TIP3      5280            0.0000000000
     40739      5480  TIP3      H1            -29.1432524855      -29.7239807320      -36.9591418614  TIP3      5280            0.0000000000
     40740      5480  TIP3      H2            -30.4961770526      -29.3407188419      -37.4274803567  TIP3      5280            0.0000000000
     40741      5481  TIP3      OH2           -24.9330422004      -32.0909537883      -31.5289366243  TIP3      5281            0.0000000000
     40742      5481  TIP3      H1            -24.7950886568      -32.8422792880      -30.9382782893  TIP3      5281            0.0000000000
     40743      5481  TIP3      H2            -24.0234750693      -31.9638003866      -31.8809297528  TIP3      5281            0.0000000000
     40744      5482  TIP3      OH2           -23.9051841878      -28.8717212993      -33.0369229679  TIP3      5282            0.0000000000
     40745      5482  TIP3      H1            -24.2912316589      -28.3783539340      -33.7909587691  TIP3      5282            0.0000000000
     40746      5482  TIP3      H2            -22.9794666324      -29.0224552607      -33.3207126947  TIP3      5282            0.0000000000
     40747      5483  TIP3      OH2           -33.5708051495      -32.2871583452      -32.1175338421  TIP3      5283            0.0000000000
     40748      5483  TIP3      H1            -34.1432236965      -33.0794404626      -32.0776775844  TIP3      5283            0.0000000000
     40749      5483  TIP3      H2            -33.2203290915      -32.3536419376      -33.0198666268  TIP3      5283            0.0000000000
     40750      5484  TIP3      OH2           -31.0520349089      -37.4291530519      -36.2386220892  TIP3      5284            0.0000000000
     40751      5484  TIP3      H1            -31.2010767707      -36.4554633777      -36.1918887482  TIP3      5284            0.0000000000
     40752      5484  TIP3      H2            -31.9226632927      -37.7005525127      -36.5586881300  TIP3      5284            0.0000000000
     40753      5485  TIP3      OH2           -29.2231249942      -33.6162010822      -32.1642879805  TIP3      5285            0.0000000000
     40754      5485  TIP3      H1            -29.8272932934      -33.1796703348      -31.5444175062  TIP3      5285            0.0000000000
     40755      5485  TIP3      H2            -29.5918598106      -33.3059760468      -33.0159644604  TIP3      5285            0.0000000000
     40756      5486  TIP3      OH2           -26.4125287774      -34.1966191626      -33.1497767007  TIP3      5286            0.0000000000
     40757      5486  TIP3      H1            -27.3599923398      -34.3729759528      -32.9868504240  TIP3      5286            0.0000000000
     40758      5486  TIP3      H2            -25.9916948778      -34.6358590346      -32.3896684322  TIP3      5286            0.0000000000
     40759      5487  TIP3      OH2           -24.6826086576      -35.2375941862      -31.3442091776  TIP3      5287            0.0000000000
     40760      5487  TIP3      H1            -24.9173791578      -36.1932059380      -31.4240264675  TIP3      5287            0.0000000000
     40761      5487  TIP3      H2            -25.1593784338      -34.9995747840      -30.5078109658  TIP3      5287            0.0000000000
     40762      5488  TIP3      OH2           -34.9674288527      -34.5485295717      -31.7633887497  TIP3      5288            0.0000000000
     40763      5488  TIP3      H1            -34.3886797031      -34.7607702227      -32.5214126220  TIP3      5288            0.0000000000
     40764      5488  TIP3      H2            -35.2945484424      -35.4446298675      -31.5738634995  TIP3      5288            0.0000000000
     40765      5489  TIP3      OH2           -30.1870922632      -37.6118453765      -33.3924587608  TIP3      5289            0.0000000000
     40766      5489  TIP3      H1            -30.5268764546      -38.5275019725      -33.3957491770  TIP3      5289            0.0000000000
     40767      5489  TIP3      H2            -30.2527869679      -37.3528810718      -34.3258657874  TIP3      5289            0.0000000000
     40768      5490  TIP3      OH2           -30.6355019787      -36.7294038506      -30.9556673581  TIP3      5290            0.0000000000
     40769      5490  TIP3      H1            -30.3371298837      -37.1214795609      -31.8108180821  TIP3      5290            0.0000000000
     40770      5490  TIP3      H2            -30.7730788606      -35.8081207163      -31.2426334052  TIP3      5290            0.0000000000
     40771      5491  TIP3      OH2           -30.8597193296      -19.7659040525      -47.7937018782  TIP3      5291            0.0000000000
     40772      5491  TIP3      H1            -29.8923929501      -19.7200537285      -47.7404857233  TIP3      5291            0.0000000000
     40773      5491  TIP3      H2            -31.0404510032      -19.3573192564      -48.6483556254  TIP3      5291            0.0000000000
     40774      5492  TIP3      OH2           -36.8076489675      -25.3928760576      -48.5991643596  TIP3      5292            0.0000000000
     40775      5492  TIP3      H1            -35.8696935329      -25.0905224265      -48.5903664638  TIP3      5292            0.0000000000
     40776      5492  TIP3      H2            -36.7931556966      -26.0366562549      -49.3330092288  TIP3      5292            0.0000000000
     40777      5493  TIP3      OH2           -37.4981208222      -20.1751210086      -44.0404506856  TIP3      5293            0.0000000000
     40778      5493  TIP3      H1            -38.3920962204      -19.8049220437      -43.8557339602  TIP3      5293            0.0000000000
     40779      5493  TIP3      H2            -37.3149963437      -20.6495051779      -43.1998385687  TIP3      5293            0.0000000000
     40780      5494  TIP3      OH2           -36.6235251152      -21.6619846051      -41.8888636693  TIP3      5294            0.0000000000
     40781      5494  TIP3      H1            -36.5513565582      -22.6079329064      -41.6678111601  TIP3      5294            0.0000000000
     40782      5494  TIP3      H2            -36.4346641106      -21.2769218907      -41.0156525355  TIP3      5294            0.0000000000
     40783      5495  TIP3      OH2           -19.7518445821      -20.9459200293      -39.0961289854  TIP3      5295            0.0000000000
     40784      5495  TIP3      H1            -19.6143358942      -20.9571197370      -38.1382748400  TIP3      5295            0.0000000000
     40785      5495  TIP3      H2            -19.2166089023      -20.1771729459      -39.3241794057  TIP3      5295            0.0000000000
     40786      5496  TIP3      OH2           -20.3831673651      -21.3720756702      -36.1691717510  TIP3      5296            0.0000000000
     40787      5496  TIP3      H1            -20.7217123471      -22.1644606107      -36.6473602423  TIP3      5296            0.0000000000
     40788      5496  TIP3      H2            -20.0628329176      -21.8005614238      -35.3642801540  TIP3      5296            0.0000000000
     40789      5497  TIP3      OH2           -21.9630406656      -25.0120120395      -31.4698029288  TIP3      5297            0.0000000000
     40790      5497  TIP3      H1            -22.8667315912      -24.7479014442      -31.7095396735  TIP3      5297            0.0000000000
     40791      5497  TIP3      H2            -21.5472309765      -24.1702452307      -31.2065193439  TIP3      5297            0.0000000000
     40792      5498  TIP3      OH2           -20.8407317831      -27.0677596342      -46.1364601767  TIP3      5298            0.0000000000
     40793      5498  TIP3      H1            -20.0006057391      -26.6199086178      -45.8886386543  TIP3      5298            0.0000000000
     40794      5498  TIP3      H2            -20.9693434929      -27.6456285262      -45.3663164840  TIP3      5298            0.0000000000
     40795      5499  TIP3      OH2           -20.4248938662      -28.9744209920      -43.7948424705  TIP3      5299            0.0000000000
     40796      5499  TIP3      H1            -21.1212431790      -29.6295716880      -43.5432691389  TIP3      5299            0.0000000000
     40797      5499  TIP3      H2            -19.8922395898      -28.9820652825      -42.9700292525  TIP3      5299            0.0000000000
     40798      5500  TIP3      OH2           -20.6506693927      -26.4429505741      -39.3622530663  TIP3      5300            0.0000000000
     40799      5500  TIP3      H1            -19.9188073308      -27.0521049373      -39.5491021747  TIP3      5300            0.0000000000
     40800      5500  TIP3      H2            -20.3349840267      -25.6122217641      -39.7710854062  TIP3      5300            0.0000000000
     40801      5501  TIP3      OH2           -21.8403196387      -23.6186882992      -36.7087837656  TIP3      5301            0.0000000000
     40802      5501  TIP3      H1            -22.5048186517      -23.1651795873      -36.1596948822  TIP3      5301            0.0000000000
     40803      5501  TIP3      H2            -22.3304704264      -23.8040280394      -37.5443578603  TIP3      5301            0.0000000000
     40804      5502  TIP3      OH2           -19.7608477728      -29.0335728400      -47.7822487436  TIP3      5302            0.0000000000
     40805      5502  TIP3      H1            -20.5136192292      -28.8587049070      -48.3823754220  TIP3      5302            0.0000000000
     40806      5502  TIP3      H2            -19.9190722707      -28.3390764342      -47.1100865653  TIP3      5302            0.0000000000
     40807      5503  TIP3      OH2           -20.7736092768      -32.4900760508      -48.7182546299  TIP3      5303            0.0000000000
     40808      5503  TIP3      H1            -21.2962547302      -31.6818932475      -48.8392824425  TIP3      5303            0.0000000000
     40809      5503  TIP3      H2            -21.3468405612      -33.0927163054      -49.2255907450  TIP3      5303            0.0000000000
     40810      5504  TIP3      OH2           -22.2929556357      -30.7517056385      -43.1830624692  TIP3      5304            0.0000000000
     40811      5504  TIP3      H1            -22.8223134448      -31.4330954402      -43.6386774395  TIP3      5304            0.0000000000
     40812      5504  TIP3      H2            -22.6514507577      -30.7360999791      -42.2734758799  TIP3      5304            0.0000000000
     40813      5505  TIP3      OH2           -36.7644253887      -27.6815857219      -39.4498671309  TIP3      5305            0.0000000000
     40814      5505  TIP3      H1            -36.7986806708      -28.2946335005      -40.2180820683  TIP3      5305            0.0000000000
     40815      5505  TIP3      H2            -35.9418502131      -27.9835011766      -39.0122566893  TIP3      5305            0.0000000000
     40816      5506  TIP3      OH2           -21.2155575433      -28.8132387524      -33.7604935344  TIP3      5306            0.0000000000
     40817      5506  TIP3      H1            -20.7652062874      -29.6683265840      -33.5468592657  TIP3      5306            0.0000000000
     40818      5506  TIP3      H2            -20.4951125046      -28.1971290360      -34.0015617372  TIP3      5306            0.0000000000
     40819      5507  TIP3      OH2           -20.4614059298      -31.1810299246      -32.6807044761  TIP3      5307            0.0000000000
     40820      5507  TIP3      H1            -21.3490279750      -31.5560742565      -32.8887870907  TIP3      5307            0.0000000000
     40821      5507  TIP3      H2            -19.9222646064      -31.9992582256      -32.7607278997  TIP3      5307            0.0000000000
     40822      5508  TIP3      OH2           -22.2450669729      -34.9265503197      -49.7799489102  TIP3      5308            0.0000000000
     40823      5508  TIP3      H1            -21.5627941265      -35.2249605741      -49.1511614755  TIP3      5308            0.0000000000
     40824      5508  TIP3      H2            -23.0475031594      -35.3859622281      -49.4953052520  TIP3      5308            0.0000000000
     40825      5509  TIP3      OH2           -22.8253093437      -32.7970105754      -44.9523097854  TIP3      5309            0.0000000000
     40826      5509  TIP3      H1            -22.5723778512      -33.7473932768      -44.8849627066  TIP3      5309            0.0000000000
     40827      5509  TIP3      H2            -21.9460988014      -32.4065415940      -45.1140608353  TIP3      5309            0.0000000000
     40828      5510  TIP3      OH2           -21.8884704161      -32.3279608818      -39.2373482419  TIP3      5310            0.0000000000
     40829      5510  TIP3      H1            -20.9102778964      -32.1529858681      -39.2401780870  TIP3      5310            0.0000000000
     40830      5510  TIP3      H2            -22.0354387500      -32.3197652618      -38.2713758636  TIP3      5310            0.0000000000
     40831      5511  TIP3      OH2           -21.8031403503      -31.5273838760      -36.6427255609  TIP3      5311            0.0000000000
     40832      5511  TIP3      H1            -22.7125816804      -31.2623007477      -36.4016745303  TIP3      5311            0.0000000000
     40833      5511  TIP3      H2            -21.4000383863      -30.7068304251      -37.0247670625  TIP3      5311            0.0000000000
     40834      5512  TIP3      OH2           -37.2273335565      -32.9798940717      -33.1578287254  TIP3      5312            0.0000000000
     40835      5512  TIP3      H1            -36.3545065179      -32.9518326141      -32.7400264541  TIP3      5312            0.0000000000
     40836      5512  TIP3      H2            -37.5616505234      -33.8166825162      -32.8107470583  TIP3      5312            0.0000000000
     40837      5513  TIP3      OH2           -19.2067896650      -37.2179183379      -31.2860650593  TIP3      5313            0.0000000000
     40838      5513  TIP3      H1            -18.3521640624      -37.3123180715      -31.7503680745  TIP3      5313            0.0000000000
     40839      5513  TIP3      H2            -19.6500569228      -36.6409587877      -31.9411141098  TIP3      5313            0.0000000000
     40840      5514  TIP3      OH2           -21.8747262920      -35.3370570759      -44.7726480740  TIP3      5314            0.0000000000
     40841      5514  TIP3      H1            -21.6967783379      -35.7590401725      -43.9141143752  TIP3      5314            0.0000000000
     40842      5514  TIP3      H2            -22.6435375352      -35.8655604389      -45.0841121739  TIP3      5314            0.0000000000
     40843      5515  TIP3      OH2           -36.9562698124      -34.8213936107      -39.6360885361  TIP3      5315            0.0000000000
     40844      5515  TIP3      H1            -36.5333623436      -35.6896671708      -39.7667194741  TIP3      5315            0.0000000000
     40845      5515  TIP3      H2            -36.1578331678      -34.2615208013      -39.5962631204  TIP3      5315            0.0000000000
     40846      5516  TIP3      OH2           -37.9631190894      -31.5166362807      -38.8008718667  TIP3      5316            0.0000000000
     40847      5516  TIP3      H1            -37.3271146991      -31.9116433349      -39.4237214665  TIP3      5316            0.0000000000
     40848      5516  TIP3      H2            -37.3941680797      -30.9811626437      -38.2289665177  TIP3      5316            0.0000000000
     40849      5517  TIP3      OH2           -20.4685691230      -35.2698351282      -32.9447579264  TIP3      5317            0.0000000000
     40850      5517  TIP3      H1            -21.3423190260      -34.8108152075      -32.8761975580  TIP3      5317            0.0000000000
     40851      5517  TIP3      H2            -20.6370898000      -35.8521218148      -33.7174180818  TIP3      5317            0.0000000000
     40852      5518  TIP3      OH2           -20.0796165126      -35.6424064690      -48.3611083192  TIP3      5318            0.0000000000
     40853      5518  TIP3      H1            -19.6322794347      -36.1206517337      -49.0812110474  TIP3      5318            0.0000000000
     40854      5518  TIP3      H2            -19.7835412860      -34.7381516814      -48.5705883514  TIP3      5318            0.0000000000
     40855      5519  TIP3      OH2           -36.9444905764      -35.2997945883      -44.7789408870  TIP3      5319            0.0000000000
     40856      5519  TIP3      H1            -37.8799160155      -35.3110449966      -45.0835022727  TIP3      5319            0.0000000000
     40857      5519  TIP3      H2            -36.5212558304      -34.6764518208      -45.3955452904  TIP3      5319            0.0000000000
     40858      5520  TIP3      OH2           -23.1118003194      -20.9300072633      -43.1305684614  TIP3      5320            0.0000000000
     40859      5520  TIP3      H1            -22.4155166326      -21.0348802008      -43.8156397418  TIP3      5320            0.0000000000
     40860      5520  TIP3      H2            -22.7004456288      -20.3200490953      -42.4880768862  TIP3      5320            0.0000000000
     40861      5521  TIP3      OH2           -37.1932661239      -36.1412448858      -36.8072170361  TIP3      5321            0.0000000000
     40862      5521  TIP3      H1            -38.0129760905      -36.3250116647      -36.3199092316  TIP3      5321            0.0000000000
     40863      5521  TIP3      H2            -37.5682102479      -35.5290025999      -37.4668219286  TIP3      5321            0.0000000000
     40864      5522  TIP3      OH2           -35.9254863454      -24.0208586776      -32.6642849800  TIP3      5322            0.0000000000
     40865      5522  TIP3      H1            -36.2726712405      -24.3900873441      -33.4846299001  TIP3      5322            0.0000000000
     40866      5522  TIP3      H2            -35.6472834202      -24.8374889127      -32.2053981358  TIP3      5322            0.0000000000
     40867      5523  TIP3      OH2           -32.5934221781      -22.2951747898      -36.3076690694  TIP3      5323            0.0000000000
     40868      5523  TIP3      H1            -32.6674350535      -21.4239818473      -36.7563525799  TIP3      5323            0.0000000000
     40869      5523  TIP3      H2            -31.6247459926      -22.4362623824      -36.3551146239  TIP3      5323            0.0000000000
     40870      5524  TIP3      OH2           -28.6085259881      -21.2857153964      -33.7402736343  TIP3      5324            0.0000000000
     40871      5524  TIP3      H1            -28.5968626631      -21.5529618021      -32.8024035528  TIP3      5324            0.0000000000
     40872      5524  TIP3      H2            -27.6864084392      -20.9470523496      -33.8533008922  TIP3      5324            0.0000000000
     40873      5525  TIP3      OH2           -26.3545234298      -20.0098703884      -34.0327979100  TIP3      5325            0.0000000000
     40874      5525  TIP3      H1            -25.6174289008      -20.3002404981      -34.5895114877  TIP3      5325            0.0000000000
     40875      5525  TIP3      H2            -25.9179601739      -19.5982014199      -33.2656312243  TIP3      5325            0.0000000000
     40876      5526  TIP3      OH2           -21.0248490436      -36.7817464843      -35.2362121113  TIP3      5326            0.0000000000
     40877      5526  TIP3      H1            -21.8462353552      -36.6616422483      -35.7413989676  TIP3      5326            0.0000000000
     40878      5526  TIP3      H2            -21.0657064376      -37.7475773245      -35.0804717389  TIP3      5326            0.0000000000
     40879      5527  TIP3      OH2           -35.1263528893      -19.3792089175      -36.4209390355  TIP3      5327            0.0000000000
     40880      5527  TIP3      H1            -35.9457935340      -19.0363559102      -36.8497842226  TIP3      5327            0.0000000000
     40881      5527  TIP3      H2            -35.4788894426      -19.5975282264      -35.5530536973  TIP3      5327            0.0000000000
     40882      5528  TIP3      OH2           -32.8183293397      -19.9496373314      -37.5862631328  TIP3      5328            0.0000000000
     40883      5528  TIP3      H1            -33.7516404441      -19.8514205130      -37.2558139733  TIP3      5328            0.0000000000
     40884      5528  TIP3      H2            -32.8265385762      -19.2801866171      -38.2924984158  TIP3      5328            0.0000000000
     40885      5529  TIP3      OH2           -28.3931461454      -20.3334257583      -38.3607102799  TIP3      5329            0.0000000000
     40886      5529  TIP3      H1            -28.3309750796      -19.7202644947      -39.1059345633  TIP3      5329            0.0000000000
     40887      5529  TIP3      H2            -28.1140786560      -19.7461656173      -37.6279340035  TIP3      5329            0.0000000000
     40888      5530  TIP3      OH2           -26.2357972076      -21.6182426271      -36.7874461128  TIP3      5330            0.0000000000
     40889      5530  TIP3      H1            -26.9347231365      -21.3803257376      -37.4174583905  TIP3      5330            0.0000000000
     40890      5530  TIP3      H2            -25.5166747630      -21.0110027889      -37.0452640749  TIP3      5330            0.0000000000
     40891      5531  TIP3      OH2           -23.6767416258      -20.0366742671      -37.1961019235  TIP3      5331            0.0000000000
     40892      5531  TIP3      H1            -23.5803994787      -19.1592705423      -37.6063646731  TIP3      5331            0.0000000000
     40893      5531  TIP3      H2            -23.3139542884      -20.5823829968      -37.9428739292  TIP3      5331            0.0000000000
     40894      5532  TIP3      OH2           -35.4967394541      -20.8970253613      -39.4263247503  TIP3      5332            0.0000000000
     40895      5532  TIP3      H1            -35.7657115882      -21.5043882159      -38.7032506972  TIP3      5332            0.0000000000
     40896      5532  TIP3      H2            -34.7110630310      -21.3675756848      -39.7890002745  TIP3      5332            0.0000000000
     40897      5533  TIP3      OH2           -33.6981246588      -22.2263361397      -40.7956498675  TIP3      5333            0.0000000000
     40898      5533  TIP3      H1            -33.9976873463      -23.1407493823      -40.6683835370  TIP3      5333            0.0000000000
     40899      5533  TIP3      H2            -32.7823592235      -22.2526539754      -40.4271040181  TIP3      5333            0.0000000000
     40900      5534  TIP3      OH2           -31.2894878017      -22.2513871132      -39.6088926755  TIP3      5334            0.0000000000
     40901      5534  TIP3      H1            -30.8850289203      -23.1324179366      -39.6791870510  TIP3      5334            0.0000000000
     40902      5534  TIP3      H2            -31.0143145703      -21.9878911027      -38.7142508515  TIP3      5334            0.0000000000
     40903      5535  TIP3      OH2           -27.7505752404      -35.7158270831      -40.9660863083  TIP3      5335            0.0000000000
     40904      5535  TIP3      H1            -28.3459260543      -36.4882062737      -40.9382472720  TIP3      5335            0.0000000000
     40905      5535  TIP3      H2            -27.1045176036      -36.0139051990      -41.6319337903  TIP3      5335            0.0000000000
     40906      5536  TIP3      OH2           -23.0362787770      -37.1967274159      -40.8810607153  TIP3      5336            0.0000000000
     40907      5536  TIP3      H1            -22.3413530946      -36.9638398963      -41.5319754086  TIP3      5336            0.0000000000
     40908      5536  TIP3      H2            -23.8352991547      -36.7526889453      -41.2234492823  TIP3      5336            0.0000000000
     40909      5537  TIP3      OH2           -20.7786180579      -36.5177352124      -42.5727497410  TIP3      5337            0.0000000000
     40910      5537  TIP3      H1            -20.1662407448      -36.9300004424      -43.2027045822  TIP3      5337            0.0000000000
     40911      5537  TIP3      H2            -20.3099687413      -35.6534828863      -42.4308300704  TIP3      5337            0.0000000000
     40912      5538  TIP3      OH2           -35.5034990297      -36.8260393551      -43.1690949544  TIP3      5338            0.0000000000
     40913      5538  TIP3      H1            -36.1378410387      -36.3595740909      -43.7628327435  TIP3      5338            0.0000000000
     40914      5538  TIP3      H2            -35.6430713781      -37.7633281821      -43.4306799673  TIP3      5338            0.0000000000
     40915      5539  TIP3      OH2           -36.7861564623      -37.1242390273      -47.0050335427  TIP3      5339            0.0000000000
     40916      5539  TIP3      H1            -36.0126380534      -36.6803584606      -47.4194365393  TIP3      5339            0.0000000000
     40917      5539  TIP3      H2            -37.2257346143      -36.3407286255      -46.6413621775  TIP3      5339            0.0000000000
     40918      5540  TIP3      OH2           -30.8057100265      -37.0250841557      -43.4828595055  TIP3      5340            0.0000000000
     40919      5540  TIP3      H1            -29.9324795416      -36.7346683024      -43.8029238520  TIP3      5340            0.0000000000
     40920      5540  TIP3      H2            -30.5590994725      -37.1547889017      -42.5459836301  TIP3      5340            0.0000000000
     40921      5541  TIP3      OH2           -25.4761447363      -36.8668533459      -42.0775684906  TIP3      5341            0.0000000000
     40922      5541  TIP3      H1            -25.2731274928      -36.9740559048      -43.0175945718  TIP3      5341            0.0000000000
     40923      5541  TIP3      H2            -25.4805736886      -37.7861269283      -41.7448638314  TIP3      5341            0.0000000000
     40924      5542  TIP3      OH2           -24.0381654979      -36.5432080938      -45.7268536212  TIP3      5342            0.0000000000
     40925      5542  TIP3      H1            -24.9172411404      -36.1951423338      -45.9913272600  TIP3      5342            0.0000000000
     40926      5542  TIP3      H2            -24.1112952043      -37.4718751236      -46.0025994296  TIP3      5342            0.0000000000
     40927      5543  TIP3      OH2           -36.3019789351      -21.2826524388      -46.8651533300  TIP3      5343            0.0000000000
     40928      5543  TIP3      H1            -37.2115239811      -21.3211294422      -46.5473937803  TIP3      5343            0.0000000000
     40929      5543  TIP3      H2            -36.2369739188      -20.3241457976      -47.0570630679  TIP3      5343            0.0000000000
     40930      5544  TIP3      OH2           -34.8199037388      -36.0991988868      -48.5195051897  TIP3      5344            0.0000000000
     40931      5544  TIP3      H1            -34.5390022725      -36.2710361394      -49.4240889212  TIP3      5344            0.0000000000
     40932      5544  TIP3      H2            -34.0007628594      -35.7921541182      -48.0759296986  TIP3      5344            0.0000000000
     40933      5545  TIP3      OH2           -30.1659830819      -35.4552896100      -46.4568557683  TIP3      5345            0.0000000000
     40934      5545  TIP3      H1            -29.8225227856      -35.9996816186      -45.7384330920  TIP3      5345            0.0000000000
     40935      5545  TIP3      H2            -29.6854992859      -34.6079551241      -46.3198679691  TIP3      5345            0.0000000000
     40936      5546  TIP3      OH2           -27.9054066920      -20.4893954285      -48.2277633027  TIP3      5346            0.0000000000
     40937      5546  TIP3      H1            -26.9295362477      -20.3185382344      -48.2935289037  TIP3      5346            0.0000000000
     40938      5546  TIP3      H2            -28.0146867530      -21.0132083239      -49.0359916797  TIP3      5346            0.0000000000
     40939      5547  TIP3      OH2           -21.3074934831      -21.2592299269      -44.9441609863  TIP3      5347            0.0000000000
     40940      5547  TIP3      H1            -21.4113032529      -22.1542768411      -45.3514769460  TIP3      5347            0.0000000000
     40941      5547  TIP3      H2            -21.4280609587      -20.6735803161      -45.7162348937  TIP3      5347            0.0000000000
     40942      5548  TIP3      OH2           -35.8489608917      -37.0286977047      -33.7601014901  TIP3      5348            0.0000000000
     40943      5548  TIP3      H1            -36.0540329795      -37.9733222101      -33.7996195345  TIP3      5348            0.0000000000
     40944      5548  TIP3      H2            -34.9063329518      -37.0592638870      -33.4974290739  TIP3      5348            0.0000000000
     40945      5549  TIP3      OH2           -33.3952520766      -37.0266022649      -31.9248770452  TIP3      5349            0.0000000000
     40946      5549  TIP3      H1            -32.4895601519      -36.8930685135      -31.6012277488  TIP3      5349            0.0000000000
     40947      5549  TIP3      H2            -33.3716653646      -37.9865464100      -32.1556670259  TIP3      5349            0.0000000000
     40948      5550  TIP3      OH2           -33.7579443171      -20.1247203408      -48.7371675137  TIP3      5350            0.0000000000
     40949      5550  TIP3      H1            -34.4392618846      -20.5144644424      -48.1772871182  TIP3      5350            0.0000000000
     40950      5550  TIP3      H2            -32.9331708627      -20.5544530576      -48.4328420451  TIP3      5350            0.0000000000
     40951      5551  TIP3      OH2           -25.4987003151      -37.7912722769      -31.7288806096  TIP3      5351            0.0000000000
     40952      5551  TIP3      H1            -25.7645269565      -38.7109521775      -31.5372922885  TIP3      5351            0.0000000000
     40953      5551  TIP3      H2            -24.6866226380      -37.9694808236      -32.2276015512  TIP3      5351            0.0000000000
     40954      5552  TIP3      OH2           -22.2010218693      -22.4672852418      -33.1393940730  TIP3      5352            0.0000000000
     40955      5552  TIP3      H1            -22.9988809816      -22.5310948911      -33.7180926043  TIP3      5352            0.0000000000
     40956      5552  TIP3      H2            -22.0985815696      -21.5068290795      -33.1348584860  TIP3      5352            0.0000000000
     40957      5553  TIP3      OH2            -7.3706755006      -28.2975986823      -43.1720047501  TIP3      5353            0.0000000000
     40958      5553  TIP3      H1             -7.4938272156      -27.3928795100      -42.8351632675  TIP3      5353            0.0000000000
     40959      5553  TIP3      H2             -8.0640465604      -28.3297554510      -43.8469164204  TIP3      5353            0.0000000000
     40960      5554  TIP3      OH2            -8.6234729250      -29.4114822188      -39.6500140229  TIP3      5354            0.0000000000
     40961      5554  TIP3      H1             -8.6416990444      -29.9880600496      -38.8548086131  TIP3      5354            0.0000000000
     40962      5554  TIP3      H2             -9.1848734663      -29.9483756543      -40.2534112820  TIP3      5354            0.0000000000
     40963      5555  TIP3      OH2           -16.3628801317      -29.3862660056      -38.3823444377  TIP3      5355            0.0000000000
     40964      5555  TIP3      H1            -16.4617761159      -30.1346988870      -37.7664136959  TIP3      5355            0.0000000000
     40965      5555  TIP3      H2            -15.6099520967      -28.9271944797      -37.9725607156  TIP3      5355            0.0000000000
     40966      5556  TIP3      OH2            -5.3508902527      -26.4245917740      -41.2436127751  TIP3      5356            0.0000000000
     40967      5556  TIP3      H1             -5.3724670547      -27.1968485100      -40.6505544438  TIP3      5356            0.0000000000
     40968      5556  TIP3      H2             -5.1356770828      -25.7249358697      -40.6121967223  TIP3      5356            0.0000000000
     40969      5557  TIP3      OH2           -15.3125435870      -24.8063888059      -40.0005979906  TIP3      5357            0.0000000000
     40970      5557  TIP3      H1            -15.7047591569      -25.6831091276      -40.2110882978  TIP3      5357            0.0000000000
     40971      5557  TIP3      H2            -14.3774155648      -25.0570226123      -40.1323962930  TIP3      5357            0.0000000000
     40972      5558  TIP3      OH2           -18.6735085451      -31.8226522246      -44.0004462659  TIP3      5358            0.0000000000
     40973      5558  TIP3      H1            -19.1680440859      -31.0097937814      -43.9015891633  TIP3      5358            0.0000000000
     40974      5558  TIP3      H2            -19.1953362592      -32.2166626663      -44.7201183069  TIP3      5358            0.0000000000
     40975      5559  TIP3      OH2           -18.3422893862      -29.0619904736      -41.8975399782  TIP3      5359            0.0000000000
     40976      5559  TIP3      H1            -17.7838171103      -29.8500254536      -41.6923794141  TIP3      5359            0.0000000000
     40977      5559  TIP3      H2            -17.7297047191      -28.5255471896      -42.4170727355  TIP3      5359            0.0000000000
     40978      5560  TIP3      OH2            -7.7154840807      -20.9049231197      -41.1274172362  TIP3      5360            0.0000000000
     40979      5560  TIP3      H1             -7.0240792016      -21.4657544607      -41.5615913472  TIP3      5360            0.0000000000
     40980      5560  TIP3      H2             -8.2113743772      -21.6130659949      -40.7012240875  TIP3      5360            0.0000000000
     40981      5561  TIP3      OH2           -10.3673225126      -26.6541885619      -38.8710787822  TIP3      5361            0.0000000000
     40982      5561  TIP3      H1            -10.0894289320      -27.2274930825      -39.5950868109  TIP3      5361            0.0000000000
     40983      5561  TIP3      H2             -9.4868478846      -26.3595636642      -38.5523997965  TIP3      5361            0.0000000000
     40984      5562  TIP3      OH2            -1.7313822272      -35.2991848873      -38.9061003888  TIP3      5362            0.0000000000
     40985      5562  TIP3      H1             -1.6458725330      -34.5768935096      -38.2389569224  TIP3      5362            0.0000000000
     40986      5562  TIP3      H2             -1.0045220461      -35.0563370364      -39.5084745108  TIP3      5362            0.0000000000
     40987      5563  TIP3      OH2            -6.6679615677      -32.1115174064      -38.6918381726  TIP3      5363            0.0000000000
     40988      5563  TIP3      H1             -6.5089930545      -33.0632388852      -38.5921886366  TIP3      5363            0.0000000000
     40989      5563  TIP3      H2             -7.1083378877      -32.0827366852      -39.5611418986  TIP3      5363            0.0000000000
     40990      5564  TIP3      OH2           -13.8048057809      -34.2236209891      -42.0691905547  TIP3      5364            0.0000000000
     40991      5564  TIP3      H1            -13.6980564155      -33.3927335852      -42.5875808451  TIP3      5364            0.0000000000
     40992      5564  TIP3      H2            -14.3077245037      -34.7822581897      -42.7058001060  TIP3      5364            0.0000000000
     40993      5565  TIP3      OH2            -6.1885195535      -34.1516740854      -43.4565582609  TIP3      5365            0.0000000000
     40994      5565  TIP3      H1             -5.8113242874      -34.2921546796      -42.5539577808  TIP3      5365            0.0000000000
     40995      5565  TIP3      H2             -5.5617392863      -33.4970199700      -43.8140777349  TIP3      5365            0.0000000000
     40996      5566  TIP3      OH2           -17.2769953160      -31.4693128666      -40.8766912809  TIP3      5366            0.0000000000
     40997      5566  TIP3      H1            -16.5191191268      -31.8335020043      -40.3884723379  TIP3      5366            0.0000000000
     40998      5566  TIP3      H2            -17.2544178066      -31.9763218395      -41.7048375691  TIP3      5366            0.0000000000
     40999      5567  TIP3      OH2           -12.4578312426      -30.2103434060      -41.4853714799  TIP3      5367            0.0000000000
     41000      5567  TIP3      H1            -11.6293683840      -30.6357081119      -41.1925205053  TIP3      5367            0.0000000000
     41001      5567  TIP3      H2            -12.7126088606      -30.8099119878      -42.2189923387  TIP3      5367            0.0000000000
     41002      5568  TIP3      OH2            -1.4251374865      -33.8083759776      -36.6735180841  TIP3      5368            0.0000000000
     41003      5568  TIP3      H1             -1.7925286120      -32.8904405964      -36.6473774719  TIP3      5368            0.0000000000
     41004      5568  TIP3      H2             -1.2988079359      -33.9968771197      -35.7304681007  TIP3      5368            0.0000000000
     41005      5569  TIP3      OH2           -14.8823878076      -35.0955815829      -37.6885025725  TIP3      5369            0.0000000000
     41006      5569  TIP3      H1            -15.1838422525      -34.5280114822      -38.4363162895  TIP3      5369            0.0000000000
     41007      5569  TIP3      H2            -15.6639244444      -35.0874412132      -37.0917569535  TIP3      5369            0.0000000000
     41008      5570  TIP3      OH2            -8.0738556670      -25.7814000016      -44.2432429384  TIP3      5370            0.0000000000
     41009      5570  TIP3      H1             -8.1923621890      -25.7616110237      -45.2124616076  TIP3      5370            0.0000000000
     41010      5570  TIP3      H2             -8.3566579395      -24.8831018645      -43.9933049179  TIP3      5370            0.0000000000
     41011      5571  TIP3      OH2           -12.6857635171      -27.5416304092      -37.8475530977  TIP3      5371            0.0000000000
     41012      5571  TIP3      H1            -13.2089285641      -26.7778696072      -37.5233220140  TIP3      5371            0.0000000000
     41013      5571  TIP3      H2            -11.9407621056      -27.0819083576      -38.2993149575  TIP3      5371            0.0000000000
     41014      5572  TIP3      OH2            -4.6080319626      -34.2089525396      -41.3533641672  TIP3      5372            0.0000000000
     41015      5572  TIP3      H1             -4.8469066111      -34.7331051362      -40.5754232720  TIP3      5372            0.0000000000
     41016      5572  TIP3      H2             -3.6494463115      -34.1586723489      -41.2516532020  TIP3      5372            0.0000000000
     41017      5573  TIP3      OH2           -15.1498120527      -33.2677698713      -39.8473761347  TIP3      5373            0.0000000000
     41018      5573  TIP3      H1            -14.4932341136      -32.6264754759      -39.4946475458  TIP3      5373            0.0000000000
     41019      5573  TIP3      H2            -14.7106114763      -33.5430940623      -40.6875983594  TIP3      5373            0.0000000000
     41020      5574  TIP3      OH2           -14.0184955115      -25.4786160242      -36.8551361737  TIP3      5374            0.0000000000
     41021      5574  TIP3      H1            -14.1106278821      -24.6726264146      -37.3849995720  TIP3      5374            0.0000000000
     41022      5574  TIP3      H2            -14.9108716817      -25.5040425196      -36.4217137666  TIP3      5374            0.0000000000
     41023      5575  TIP3      OH2           -18.2261777561      -26.1303552925      -45.9126893667  TIP3      5375            0.0000000000
     41024      5575  TIP3      H1            -18.1950580178      -25.5427877978      -46.6995806993  TIP3      5375            0.0000000000
     41025      5575  TIP3      H2            -18.0342999090      -25.4809225958      -45.2099639315  TIP3      5375            0.0000000000
     41026      5576  TIP3      OH2            -4.3992444716      -24.0681931851      -39.2398696733  TIP3      5376            0.0000000000
     41027      5576  TIP3      H1             -5.3207751453      -23.8727426696      -38.9731131649  TIP3      5376            0.0000000000
     41028      5576  TIP3      H2             -4.1973087419      -23.2418902225      -39.7053044764  TIP3      5376            0.0000000000
     41029      5577  TIP3      OH2            -4.2296260965      -36.1375637392      -37.7584698490  TIP3      5377            0.0000000000
     41030      5577  TIP3      H1             -4.9036501499      -35.9017891179      -38.4338675709  TIP3      5377            0.0000000000
     41031      5577  TIP3      H2             -3.4175893517      -36.1714439734      -38.2782415312  TIP3      5377            0.0000000000
     41032      5578  TIP3      OH2           -11.1820250892      -37.2546289921      -40.8257588630  TIP3      5378            0.0000000000
     41033      5578  TIP3      H1            -11.0948480932      -38.1340899660      -40.3928050708  TIP3      5378            0.0000000000
     41034      5578  TIP3      H2            -11.7322143986      -36.7837777871      -40.1616574983  TIP3      5378            0.0000000000
     41035      5579  TIP3      OH2            -6.0178894638      -22.5090822891      -42.4247936906  TIP3      5379            0.0000000000
     41036      5579  TIP3      H1             -5.8772234233      -23.3333780110      -42.9293454160  TIP3      5379            0.0000000000
     41037      5579  TIP3      H2             -5.2265074545      -21.9981990840      -42.7353581399  TIP3      5379            0.0000000000
     41038      5580  TIP3      OH2            -5.0710008454      -24.6758080232      -43.9340542709  TIP3      5380            0.0000000000
     41039      5580  TIP3      H1             -5.1972878402      -25.3978605354      -44.5788818923  TIP3      5380            0.0000000000
     41040      5580  TIP3      H2             -5.1145241868      -25.2034453920      -43.1186001165  TIP3      5380            0.0000000000
     41041      5581  TIP3      OH2            -3.4001678715      -25.7806006968      -35.3138999221  TIP3      5381            0.0000000000
     41042      5581  TIP3      H1             -3.2394685661      -26.5296577388      -35.9344006742  TIP3      5381            0.0000000000
     41043      5581  TIP3      H2             -3.2145031098      -25.0388997640      -35.9238626191  TIP3      5381            0.0000000000
     41044      5582  TIP3      OH2            -8.8280291499      -28.9767754152      -45.6177074807  TIP3      5382            0.0000000000
     41045      5582  TIP3      H1             -9.2842189585      -28.1480608551      -45.8807409341  TIP3      5382            0.0000000000
     41046      5582  TIP3      H2             -8.0357949812      -29.0051636814      -46.1939021494  TIP3      5382            0.0000000000
     41047      5583  TIP3      OH2            -8.3067339771      -30.5078715937      -48.6758895011  TIP3      5383            0.0000000000
     41048      5583  TIP3      H1             -7.5355771789      -30.1300905772      -48.1911443647  TIP3      5383            0.0000000000
     41049      5583  TIP3      H2             -7.9605239027      -31.3912764019      -48.9162387301  TIP3      5383            0.0000000000
     41050      5584  TIP3      OH2            -1.4366538756      -29.4923253483      -37.4473718317  TIP3      5384            0.0000000000
     41051      5584  TIP3      H1             -2.0565725230      -28.7336165434      -37.4430625974  TIP3      5384            0.0000000000
     41052      5584  TIP3      H2             -0.7683248471      -29.1669405784      -38.0787974812  TIP3      5384            0.0000000000
     41053      5585  TIP3      OH2            -5.2449159697      -29.1993302094      -44.5944036041  TIP3      5385            0.0000000000
     41054      5585  TIP3      H1             -5.9581660371      -28.9076039378      -43.9734698860  TIP3      5385            0.0000000000
     41055      5585  TIP3      H2             -4.5612125572      -29.5547113209      -43.9836244622  TIP3      5385            0.0000000000
     41056      5586  TIP3      OH2            -5.6120569386      -30.9959603391      -35.5774039237  TIP3      5386            0.0000000000
     41057      5586  TIP3      H1             -5.5864360558      -30.0641798778      -35.3072956899  TIP3      5386            0.0000000000
     41058      5586  TIP3      H2             -6.2411363184      -30.9487473955      -36.3149952103  TIP3      5386            0.0000000000
     41059      5587  TIP3      OH2           -13.7973584722      -28.2616796647      -42.8254057390  TIP3      5387            0.0000000000
     41060      5587  TIP3      H1            -14.0895758632      -28.4866470520      -43.7439645954  TIP3      5387            0.0000000000
     41061      5587  TIP3      H2            -13.2624853973      -29.0429325762      -42.5896590700  TIP3      5387            0.0000000000
     41062      5588  TIP3      OH2           -12.4675240977      -25.1197657648      -40.1940554074  TIP3      5388            0.0000000000
     41063      5588  TIP3      H1            -12.3093404836      -25.2418712795      -41.1381986251  TIP3      5388            0.0000000000
     41064      5588  TIP3      H2            -11.7072658415      -25.5594225248      -39.7736581628  TIP3      5388            0.0000000000
     41065      5589  TIP3      OH2           -13.6686413561      -29.5889000417      -39.0826806073  TIP3      5389            0.0000000000
     41066      5589  TIP3      H1            -13.3098676857      -29.5997492630      -39.9979950764  TIP3      5389            0.0000000000
     41067      5589  TIP3      H2            -13.1688040324      -28.8506737797      -38.6659080595  TIP3      5389            0.0000000000
     41068      5590  TIP3      OH2            -6.9131776810      -23.8336153458      -38.4232917864  TIP3      5390            0.0000000000
     41069      5590  TIP3      H1             -7.1689353160      -23.2975633328      -37.6630801868  TIP3      5390            0.0000000000
     41070      5590  TIP3      H2             -7.0904102777      -24.7422808226      -38.0937316505  TIP3      5390            0.0000000000
     41071      5591  TIP3      OH2           -12.3839208317      -25.1172064278      -34.7432462049  TIP3      5391            0.0000000000
     41072      5591  TIP3      H1            -13.0870248863      -24.6620401409      -34.2238085509  TIP3      5391            0.0000000000
     41073      5591  TIP3      H2            -12.8444761595      -25.2517311266      -35.5985894559  TIP3      5391            0.0000000000
     41074      5592  TIP3      OH2            -6.4939518174      -29.5089741125      -46.9139991469  TIP3      5392            0.0000000000
     41075      5592  TIP3      H1             -5.9806628769      -29.4341537053      -46.0620902043  TIP3      5392            0.0000000000
     41076      5592  TIP3      H2             -5.8972460091      -29.0046350016      -47.5221552585  TIP3      5392            0.0000000000
     41077      5593  TIP3      OH2           -15.3625720066      -28.9244377314      -35.6805466133  TIP3      5393            0.0000000000
     41078      5593  TIP3      H1            -15.1689844108      -28.0154739458      -35.3938427734  TIP3      5393            0.0000000000
     41079      5593  TIP3      H2            -16.1450231135      -29.1289166484      -35.1325241894  TIP3      5393            0.0000000000
     41080      5594  TIP3      OH2            -8.8141909214      -22.9672278568      -44.1606791174  TIP3      5394            0.0000000000
     41081      5594  TIP3      H1             -8.5063571261      -22.5733622964      -43.3350739092  TIP3      5394            0.0000000000
     41082      5594  TIP3      H2             -9.2610972856      -22.2333151493      -44.6180675798  TIP3      5394            0.0000000000
     41083      5595  TIP3      OH2           -14.1447025583      -23.4021324648      -33.6694344717  TIP3      5395            0.0000000000
     41084      5595  TIP3      H1            -14.2768227248      -22.9894155763      -34.5482805010  TIP3      5395            0.0000000000
     41085      5595  TIP3      H2            -15.0808041174      -23.5993083179      -33.4492212512  TIP3      5395            0.0000000000
     41086      5596  TIP3      OH2            -2.5956934682      -37.4225214753      -46.9798749890  TIP3      5396            0.0000000000
     41087      5596  TIP3      H1             -3.3473928540      -37.0103336995      -46.5160450384  TIP3      5396            0.0000000000
     41088      5596  TIP3      H2             -2.4048212415      -36.7399210751      -47.6400842882  TIP3      5396            0.0000000000
     41089      5597  TIP3      OH2           -14.8854570821      -29.1949848506      -45.1621218201  TIP3      5397            0.0000000000
     41090      5597  TIP3      H1            -15.2856452917      -28.4823720020      -45.6994051307  TIP3      5397            0.0000000000
     41091      5597  TIP3      H2            -15.3464153850      -29.9830951013      -45.4803231741  TIP3      5397            0.0000000000
     41092      5598  TIP3      OH2            -1.6157757540      -23.4049556786      -48.6913421507  TIP3      5398            0.0000000000
     41093      5598  TIP3      H1             -1.3374052382      -22.4840461786      -48.4766549328  TIP3      5398            0.0000000000
     41094      5598  TIP3      H2             -0.8162322765      -23.9354521407      -48.4882945457  TIP3      5398            0.0000000000
     41095      5599  TIP3      OH2           -18.4518379496      -26.6583408099      -36.2681228245  TIP3      5399            0.0000000000
     41096      5599  TIP3      H1            -18.7389181159      -26.6162039361      -37.1942524156  TIP3      5399            0.0000000000
     41097      5599  TIP3      H2            -18.1470843739      -27.5902635751      -36.2462100948  TIP3      5399            0.0000000000
     41098      5600  TIP3      OH2           -18.8801122447      -24.0691336482      -39.5456549911  TIP3      5400            0.0000000000
     41099      5600  TIP3      H1            -17.9281650027      -24.2226513577      -39.6134049123  TIP3      5400            0.0000000000
     41100      5600  TIP3      H2            -18.9101514016      -23.2140028187      -39.1000263634  TIP3      5400            0.0000000000
     41101      5601  TIP3      OH2            -1.0886560239      -23.2548303194      -33.7291987733  TIP3      5401            0.0000000000
     41102      5601  TIP3      H1             -1.1349769908      -24.2185317304      -33.8651452672  TIP3      5401            0.0000000000
     41103      5601  TIP3      H2             -1.9857897384      -23.0729336956      -33.3615738796  TIP3      5401            0.0000000000
     41104      5602  TIP3      OH2            -9.9088137093      -23.9719868488      -34.8468208285  TIP3      5402            0.0000000000
     41105      5602  TIP3      H1             -9.8365368429      -23.1552603584      -34.3164740736  TIP3      5402            0.0000000000
     41106      5602  TIP3      H2            -10.8651323415      -24.2129501491      -34.8106206509  TIP3      5402            0.0000000000
     41107      5603  TIP3      OH2            -9.3279751851      -20.1852869993      -45.4023720791  TIP3      5403            0.0000000000
     41108      5603  TIP3      H1             -9.2364500448      -19.9600416559      -46.3462664479  TIP3      5403            0.0000000000
     41109      5603  TIP3      H2             -9.2983584040      -19.2971248126      -44.9781759927  TIP3      5403            0.0000000000
     41110      5604  TIP3      OH2           -15.5963977042      -21.4594327792      -43.2649949656  TIP3      5404            0.0000000000
     41111      5604  TIP3      H1            -15.3160843615      -21.7540394302      -42.3639298273  TIP3      5404            0.0000000000
     41112      5604  TIP3      H2            -16.5072113854      -21.8114014300      -43.2867223771  TIP3      5404            0.0000000000
     41113      5605  TIP3      OH2            -6.5508204610      -20.4216839534      -47.9510597008  TIP3      5405            0.0000000000
     41114      5605  TIP3      H1             -6.0793914042      -21.1932845829      -48.3487742408  TIP3      5405            0.0000000000
     41115      5605  TIP3      H2             -6.1840190703      -20.3900346983      -47.0576314663  TIP3      5405            0.0000000000
     41116      5606  TIP3      OH2            -6.7026588986      -20.9359028213      -45.1057906869  TIP3      5406            0.0000000000
     41117      5606  TIP3      H1             -7.6652792816      -20.8026745245      -44.9936226697  TIP3      5406            0.0000000000
     41118      5606  TIP3      H2             -6.6131855923      -21.8933418706      -44.9478938819  TIP3      5406            0.0000000000
     41119      5607  TIP3      OH2            -3.9485238214      -32.1178315904      -33.4702599445  TIP3      5407            0.0000000000
     41120      5607  TIP3      H1             -4.4607058695      -31.7477015860      -34.2115060925  TIP3      5407            0.0000000000
     41121      5607  TIP3      H2             -3.8323440007      -33.0414631840      -33.7591233908  TIP3      5407            0.0000000000
     41122      5608  TIP3      OH2           -16.2736477058      -25.4538530441      -35.4572134467  TIP3      5408            0.0000000000
     41123      5608  TIP3      H1            -16.3103634341      -25.8018855213      -34.5370245026  TIP3      5408            0.0000000000
     41124      5608  TIP3      H2            -17.1525814673      -25.7243580332      -35.7989746305  TIP3      5408            0.0000000000
     41125      5609  TIP3      OH2           -13.3467307787      -36.2590369585      -39.4869322571  TIP3      5409            0.0000000000
     41126      5609  TIP3      H1            -14.0787278809      -35.9967877882      -40.0748148782  TIP3      5409            0.0000000000
     41127      5609  TIP3      H2            -13.5724907251      -35.7374903188      -38.6865937102  TIP3      5409            0.0000000000
     41128      5610  TIP3      OH2            -9.7006855114      -36.5489105319      -35.5790638850  TIP3      5410            0.0000000000
     41129      5610  TIP3      H1             -9.1635456174      -37.3603227403      -35.5785511516  TIP3      5410            0.0000000000
     41130      5610  TIP3      H2            -10.3920504159      -36.8495531330      -36.2024934260  TIP3      5410            0.0000000000
     41131      5611  TIP3      OH2            -5.9603982366      -33.7263411381      -35.5967997255  TIP3      5411            0.0000000000
     41132      5611  TIP3      H1             -6.5082214355      -33.8816654225      -34.7922014602  TIP3      5411            0.0000000000
     41133      5611  TIP3      H2             -5.6844191193      -32.7978143339      -35.4556271605  TIP3      5411            0.0000000000
     41134      5612  TIP3      OH2            -4.8568919149      -28.4418807949      -48.6405055854  TIP3      5412            0.0000000000
     41135      5612  TIP3      H1             -5.2898102549      -28.3176616359      -49.5233216362  TIP3      5412            0.0000000000
     41136      5612  TIP3      H2             -3.9430757157      -28.2043137106      -48.9188110443  TIP3      5412            0.0000000000
     41137      5613  TIP3      OH2            -9.7098900755      -34.7091823133      -48.7420051052  TIP3      5413            0.0000000000
     41138      5613  TIP3      H1            -10.0256253698      -35.1797980653      -47.9461075426  TIP3      5413            0.0000000000
     41139      5613  TIP3      H2            -10.1088308471      -35.2163805067      -49.4611718156  TIP3      5413            0.0000000000
     41140      5614  TIP3      OH2           -13.5373485604      -31.9956005349      -38.1408622646  TIP3      5414            0.0000000000
     41141      5614  TIP3      H1            -14.3415225180      -32.0809216019      -37.5975913907  TIP3      5414            0.0000000000
     41142      5614  TIP3      H2            -13.5868011000      -31.0358402569      -38.3658858088  TIP3      5414            0.0000000000
     41143      5615  TIP3      OH2           -13.6094122890      -31.9024519111      -43.3801414163  TIP3      5415            0.0000000000
     41144      5615  TIP3      H1            -14.5808019905      -32.0102848837      -43.4840250082  TIP3      5415            0.0000000000
     41145      5615  TIP3      H2            -13.2698302391      -32.0424889850      -44.2959014475  TIP3      5415            0.0000000000
     41146      5616  TIP3      OH2            -7.7834510000      -31.3817874303      -44.5118613035  TIP3      5416            0.0000000000
     41147      5616  TIP3      H1             -8.2611629175      -30.5832553482      -44.8336398138  TIP3      5416            0.0000000000
     41148      5616  TIP3      H2             -7.2988632908      -31.6219072257      -45.3173973879  TIP3      5416            0.0000000000
     41149      5617  TIP3      OH2            -9.2398754602      -31.0123277574      -33.2855500994  TIP3      5417            0.0000000000
     41150      5617  TIP3      H1             -9.6457736110      -31.8614900746      -33.0014308400  TIP3      5417            0.0000000000
     41151      5617  TIP3      H2             -8.4310640179      -31.0281823871      -32.7453135784  TIP3      5417            0.0000000000
     41152      5618  TIP3      OH2            -7.0705038334      -32.0925284657      -41.5237708145  TIP3      5418            0.0000000000
     41153      5618  TIP3      H1             -6.9998660332      -31.2985697611      -42.0885380860  TIP3      5418            0.0000000000
     41154      5618  TIP3      H2             -7.0237815584      -32.7833626184      -42.2077199162  TIP3      5418            0.0000000000
     41155      5619  TIP3      OH2           -16.2597937529      -31.9374765749      -36.8948639042  TIP3      5419            0.0000000000
     41156      5619  TIP3      H1            -15.7168905618      -31.5321930878      -36.2007916267  TIP3      5419            0.0000000000
     41157      5619  TIP3      H2            -16.4380776863      -32.8216888676      -36.5220139509  TIP3      5419            0.0000000000
     41158      5620  TIP3      OH2           -12.9884514781      -34.2194435717      -49.6679533369  TIP3      5420            0.0000000000
     41159      5620  TIP3      H1            -13.3072333793      -34.2636223215      -48.7463255442  TIP3      5420            0.0000000000
     41160      5620  TIP3      H2            -13.7673009170      -33.8636696061      -50.1353990620  TIP3      5420            0.0000000000
     41161      5621  TIP3      OH2           -19.1671211655      -34.3381223101      -42.5287706960  TIP3      5421            0.0000000000
     41162      5621  TIP3      H1            -18.4586971583      -34.4090171155      -41.8619472355  TIP3      5421            0.0000000000
     41163      5621  TIP3      H2            -18.7951278617      -34.8354047543      -43.2811122541  TIP3      5421            0.0000000000
     41164      5622  TIP3      OH2           -18.2186330061      -33.9198755145      -46.7536342019  TIP3      5422            0.0000000000
     41165      5622  TIP3      H1            -17.7091236645      -33.5388549475      -47.4903049724  TIP3      5422            0.0000000000
     41166      5622  TIP3      H2            -18.7965141790      -33.1751407828      -46.5415774385  TIP3      5422            0.0000000000
     41167      5623  TIP3      OH2            -8.2052844407      -30.5159321617      -37.2407008970  TIP3      5423            0.0000000000
     41168      5623  TIP3      H1             -7.5718456647      -31.1150898399      -37.7001998771  TIP3      5423            0.0000000000
     41169      5623  TIP3      H2             -8.7012464262      -31.1308831918      -36.6532963101  TIP3      5423            0.0000000000
     41170      5624  TIP3      OH2           -10.9172205996      -34.3553294328      -42.2696896834  TIP3      5424            0.0000000000
     41171      5624  TIP3      H1            -11.8395727856      -34.6605408024      -42.1843550831  TIP3      5424            0.0000000000
     41172      5624  TIP3      H2            -10.5509188816      -34.6687277579      -41.4208516550  TIP3      5424            0.0000000000
     41173      5625  TIP3      OH2           -16.2406340695      -32.7126682843      -43.4287243726  TIP3      5425            0.0000000000
     41174      5625  TIP3      H1            -17.1574133602      -32.4921680992      -43.7230606816  TIP3      5425            0.0000000000
     41175      5625  TIP3      H2            -16.0820985798      -33.5794550841      -43.8484073649  TIP3      5425            0.0000000000
     41176      5626  TIP3      OH2           -12.5851311100      -32.4481139139      -45.7658541533  TIP3      5426            0.0000000000
     41177      5626  TIP3      H1            -11.6077952287      -32.4649296117      -45.7806378616  TIP3      5426            0.0000000000
     41178      5626  TIP3      H2            -12.8762357842      -31.9750358222      -46.5846082769  TIP3      5426            0.0000000000
     41179      5627  TIP3      OH2            -6.5041116562      -35.3576788387      -39.2337127801  TIP3      5427            0.0000000000
     41180      5627  TIP3      H1             -7.1315950718      -35.2142297895      -38.4853398596  TIP3      5427            0.0000000000
     41181      5627  TIP3      H2             -7.1216522985      -35.6991944891      -39.8936074827  TIP3      5427            0.0000000000
     41182      5628  TIP3      OH2           -13.8514003682      -31.2711089054      -47.9490168384  TIP3      5428            0.0000000000
     41183      5628  TIP3      H1            -14.3858091616      -31.9070393590      -48.4325365571  TIP3      5428            0.0000000000
     41184      5628  TIP3      H2            -13.1732010203      -31.0389022876      -48.6140261355  TIP3      5428            0.0000000000
     41185      5629  TIP3      OH2            -3.6251752582      -19.4036552151      -32.5759839137  TIP3      5429            0.0000000000
     41186      5629  TIP3      H1             -3.2709470368      -18.8797530213      -33.3214663112  TIP3      5429            0.0000000000
     41187      5629  TIP3      H2             -2.8632326390      -19.3829709460      -31.9669676686  TIP3      5429            0.0000000000
     41188      5630  TIP3      OH2           -15.9636710144      -26.9533859296      -33.1237851956  TIP3      5430            0.0000000000
     41189      5630  TIP3      H1            -15.1472504649      -26.8487317203      -32.5951632349  TIP3      5430            0.0000000000
     41190      5630  TIP3      H2            -16.6258374091      -27.2304693673      -32.4696555898  TIP3      5430            0.0000000000
     41191      5631  TIP3      OH2            -9.8096073382      -31.5345531649      -40.6141073722  TIP3      5431            0.0000000000
     41192      5631  TIP3      H1             -9.1498054529      -31.9404249181      -41.2031236868  TIP3      5431            0.0000000000
     41193      5631  TIP3      H2             -9.9711212526      -32.2492404101      -39.9986062918  TIP3      5431            0.0000000000
     41194      5632  TIP3      OH2           -15.1899268803      -35.3007208503      -44.0548804262  TIP3      5432            0.0000000000
     41195      5632  TIP3      H1            -15.7667919615      -35.9790628440      -43.6349192266  TIP3      5432            0.0000000000
     41196      5632  TIP3      H2            -14.6413697801      -35.8647965762      -44.6118114901  TIP3      5432            0.0000000000
     41197      5633  TIP3      OH2           -11.2555322023      -33.3757497704      -38.0646132729  TIP3      5433            0.0000000000
     41198      5633  TIP3      H1            -12.0059412137      -32.7250794418      -38.0460020331  TIP3      5433            0.0000000000
     41199      5633  TIP3      H2            -10.5469440702      -32.8619941288      -37.6482062325  TIP3      5433            0.0000000000
     41200      5634  TIP3      OH2           -10.5878690748      -26.8584530943      -46.0978856885  TIP3      5434            0.0000000000
     41201      5634  TIP3      H1            -11.3057126623      -27.4695817312      -46.3874315668  TIP3      5434            0.0000000000
     41202      5634  TIP3      H2            -10.9079783832      -26.6621670757      -45.1900506725  TIP3      5434            0.0000000000
     41203      5635  TIP3      OH2            -3.1468283904      -27.4339974357      -37.3529014105  TIP3      5435            0.0000000000
     41204      5635  TIP3      H1             -2.7240640960      -26.8551201668      -38.0368864040  TIP3      5435            0.0000000000
     41205      5635  TIP3      H2             -4.0180109880      -27.5704646333      -37.7683762382  TIP3      5435            0.0000000000
     41206      5636  TIP3      OH2            -7.2679244899      -34.3701311991      -47.7625556869  TIP3      5436            0.0000000000
     41207      5636  TIP3      H1             -8.1523065016      -34.0803896191      -48.0753908807  TIP3      5436            0.0000000000
     41208      5636  TIP3      H2             -6.7872378246      -33.5152599541      -47.6533257335  TIP3      5436            0.0000000000
     41209      5637  TIP3      OH2            -9.5932299400      -26.6682687131      -35.2099898179  TIP3      5437            0.0000000000
     41210      5637  TIP3      H1             -9.5503463861      -27.0845288778      -34.3461227773  TIP3      5437            0.0000000000
     41211      5637  TIP3      H2             -9.6920918372      -25.7217866689      -34.9888951937  TIP3      5437            0.0000000000
     41212      5638  TIP3      OH2            -5.9449707800      -32.3151834053      -46.7675733706  TIP3      5438            0.0000000000
     41213      5638  TIP3      H1             -5.2742790765      -32.4501157976      -46.0709355654  TIP3      5438            0.0000000000
     41214      5638  TIP3      H2             -5.6622046549      -31.4541193215      -47.1102818585  TIP3      5438            0.0000000000
     41215      5639  TIP3      OH2           -15.4823159814      -27.3665052579      -40.7149377605  TIP3      5439            0.0000000000
     41216      5639  TIP3      H1            -14.8906340473      -27.5862086529      -41.4643303929  TIP3      5439            0.0000000000
     41217      5639  TIP3      H2            -15.3724738247      -28.1343881484      -40.1321480327  TIP3      5439            0.0000000000
     41218      5640  TIP3      OH2            -8.3604048442      -25.5531858932      -47.0476049844  TIP3      5440            0.0000000000
     41219      5640  TIP3      H1             -8.7968946022      -24.6752651763      -46.9657957954  TIP3      5440            0.0000000000
     41220      5640  TIP3      H2             -9.1311064550      -26.1552075414      -46.9634289548  TIP3      5440            0.0000000000
     41221      5641  TIP3      OH2           -18.3627202902      -29.4475072942      -35.3428425050  TIP3      5441            0.0000000000
     41222      5641  TIP3      H1            -18.4613772399      -29.9092180752      -34.4860876085  TIP3      5441            0.0000000000
     41223      5641  TIP3      H2            -18.9925734858      -29.9177007189      -35.9194456694  TIP3      5441            0.0000000000
     41224      5642  TIP3      OH2           -11.6561099582      -29.6574329925      -33.2348434675  TIP3      5442            0.0000000000
     41225      5642  TIP3      H1            -12.1376597451      -30.1458200986      -33.9111662144  TIP3      5442            0.0000000000
     41226      5642  TIP3      H2            -10.7462198946      -30.0355668072      -33.3231583425  TIP3      5442            0.0000000000
     41227      5643  TIP3      OH2            -6.6476857451      -24.2862566585      -34.8857453349  TIP3      5443            0.0000000000
     41228      5643  TIP3      H1             -7.5384537412      -24.2925273979      -35.2524940926  TIP3      5443            0.0000000000
     41229      5643  TIP3      H2             -6.8104376200      -23.8695965206      -34.0134747133  TIP3      5443            0.0000000000
     41230      5644  TIP3      OH2            -1.1506321398      -31.9051065866      -46.5015606487  TIP3      5444            0.0000000000
     41231      5644  TIP3      H1             -1.8131172392      -32.1527889435      -47.1879448845  TIP3      5444            0.0000000000
     41232      5644  TIP3      H2             -1.0869345330      -30.9529541322      -46.7084147192  TIP3      5444            0.0000000000
     41233      5645  TIP3      OH2            -0.9881430935      -26.0455290535      -33.9074472129  TIP3      5445            0.0000000000
     41234      5645  TIP3      H1             -1.9154402591      -26.0046160238      -34.2432756835  TIP3      5445            0.0000000000
     41235      5645  TIP3      H2             -0.4963789357      -26.2214444741      -34.7335177100  TIP3      5445            0.0000000000
     41236      5646  TIP3      OH2            -2.7244794065      -23.7279465956      -46.2203589069  TIP3      5446            0.0000000000
     41237      5646  TIP3      H1             -3.5376071928      -24.2430838222      -46.1583547064  TIP3      5446            0.0000000000
     41238      5646  TIP3      H2             -2.5546577684      -23.6883011538      -47.1831380294  TIP3      5446            0.0000000000
     41239      5647  TIP3      OH2            -5.6052677800      -28.3881434315      -39.3289052952  TIP3      5447            0.0000000000
     41240      5647  TIP3      H1             -6.5423423537      -28.5294308742      -39.5523653880  TIP3      5447            0.0000000000
     41241      5647  TIP3      H2             -5.2024099095      -29.1466362758      -39.7814410311  TIP3      5447            0.0000000000
     41242      5648  TIP3      OH2           -13.2315986994      -24.1007612504      -43.0136729993  TIP3      5448            0.0000000000
     41243      5648  TIP3      H1            -12.9695571401      -23.1880379812      -43.2666130589  TIP3      5448            0.0000000000
     41244      5648  TIP3      H2            -14.1295149277      -24.1077073143      -43.3543698058  TIP3      5448            0.0000000000
     41245      5649  TIP3      OH2           -17.1940003531      -29.2206774956      -48.9588298225  TIP3      5449            0.0000000000
     41246      5649  TIP3      H1            -16.5881852036      -28.7128816937      -48.3753438251  TIP3      5449            0.0000000000
     41247      5649  TIP3      H2            -18.0166496581      -29.1796704715      -48.4367571480  TIP3      5449            0.0000000000
     41248      5650  TIP3      OH2           -11.7484674921      -26.5251319059      -43.6135074005  TIP3      5450            0.0000000000
     41249      5650  TIP3      H1            -12.2735047213      -25.7032152552      -43.5218981116  TIP3      5450            0.0000000000
     41250      5650  TIP3      H2            -12.2609516363      -27.1662213705      -43.0813628202  TIP3      5450            0.0000000000
     41251      5651  TIP3      OH2           -11.1758526051      -22.3995768197      -36.8879199770  TIP3      5451            0.0000000000
     41252      5651  TIP3      H1            -10.5994294453      -21.7159485523      -37.2864745813  TIP3      5451            0.0000000000
     41253      5651  TIP3      H2            -10.5618594948      -22.7944224187      -36.2392079803  TIP3      5451            0.0000000000
     41254      5652  TIP3      OH2           -12.8785927832      -21.6175659840      -44.0968559000  TIP3      5452            0.0000000000
     41255      5652  TIP3      H1            -13.8200387360      -21.4386707214      -43.9166089741  TIP3      5452            0.0000000000
     41256      5652  TIP3      H2            -12.4865854314      -20.7595045411      -43.8080747506  TIP3      5452            0.0000000000
     41257      5653  TIP3      OH2            -8.0462816342      -26.3711694372      -37.5472023640  TIP3      5453            0.0000000000
     41258      5653  TIP3      H1             -8.6238260901      -26.6451976547      -36.7958509254  TIP3      5453            0.0000000000
     41259      5653  TIP3      H2             -7.6154847739      -27.2210183732      -37.7550456546  TIP3      5453            0.0000000000
     41260      5654  TIP3      OH2            -5.3487051585      -25.2560782337      -48.5424240827  TIP3      5454            0.0000000000
     41261      5654  TIP3      H1             -5.2195331223      -25.7527313663      -47.7042862533  TIP3      5454            0.0000000000
     41262      5654  TIP3      H2             -6.3098669497      -25.3601163871      -48.5739130093  TIP3      5454            0.0000000000
     41263      5655  TIP3      OH2            -4.9550308366      -21.7749636720      -35.1159013472  TIP3      5455            0.0000000000
     41264      5655  TIP3      H1             -5.7674835334      -22.2824133125      -35.3224537600  TIP3      5455            0.0000000000
     41265      5655  TIP3      H2             -4.8383187034      -21.1948028097      -35.9058700724  TIP3      5455            0.0000000000
     41266      5656  TIP3      OH2            -0.8465876770      -20.9512933937      -48.0845164258  TIP3      5456            0.0000000000
     41267      5656  TIP3      H1             -0.2610681037      -20.2808175181      -48.4777891334  TIP3      5456            0.0000000000
     41268      5656  TIP3      H2             -1.5467013803      -20.3631682183      -47.6969771811  TIP3      5456            0.0000000000
     41269      5657  TIP3      OH2           -16.8289160912      -34.7599357356      -35.8767374123  TIP3      5457            0.0000000000
     41270      5657  TIP3      H1            -17.7167135611      -34.3927988838      -36.0094628912  TIP3      5457            0.0000000000
     41271      5657  TIP3      H2            -17.0327313544      -35.6812136290      -35.6421865053  TIP3      5457            0.0000000000
     41272      5658  TIP3      OH2            -4.6091433949      -26.6370088743      -46.3381766358  TIP3      5458            0.0000000000
     41273      5658  TIP3      H1             -4.7115437809      -27.5983236270      -46.3136058597  TIP3      5458            0.0000000000
     41274      5658  TIP3      H2             -3.6351754145      -26.5836190292      -46.3969852061  TIP3      5458            0.0000000000
     41275      5659  TIP3      OH2           -17.0957064005      -22.7075719787      -37.2722577174  TIP3      5459            0.0000000000
     41276      5659  TIP3      H1            -16.5791892931      -23.5249915238      -37.2495678819  TIP3      5459            0.0000000000
     41277      5659  TIP3      H2            -16.6688214330      -22.2077646394      -36.5636661105  TIP3      5459            0.0000000000
     41278      5660  TIP3      OH2           -12.6943455078      -24.7376542630      -47.3865751644  TIP3      5460            0.0000000000
     41279      5660  TIP3      H1            -11.8563182888      -25.0943740418      -47.0541769351  TIP3      5460            0.0000000000
     41280      5660  TIP3      H2            -12.6148130340      -23.7850073081      -47.1455048398  TIP3      5460            0.0000000000
     41281      5661  TIP3      OH2           -16.0834306907      -27.4616942765      -47.0772615781  TIP3      5461            0.0000000000
     41282      5661  TIP3      H1            -16.8275731556      -27.0384568027      -46.6003679467  TIP3      5461            0.0000000000
     41283      5661  TIP3      H2            -15.6171112868      -26.6845535271      -47.4487902016  TIP3      5461            0.0000000000
     41284      5662  TIP3      OH2            -8.0316789118      -34.7350211649      -37.0270111714  TIP3      5462            0.0000000000
     41285      5662  TIP3      H1             -7.2174207389      -34.5103729901      -36.5167360451  TIP3      5462            0.0000000000
     41286      5662  TIP3      H2             -8.5294687591      -35.3010074857      -36.3972015402  TIP3      5462            0.0000000000
     41287      5663  TIP3      OH2            -7.4181486963      -35.5110476294      -45.3395370705  TIP3      5463            0.0000000000
     41288      5663  TIP3      H1             -7.3777545871      -34.9054242631      -46.1122832219  TIP3      5463            0.0000000000
     41289      5663  TIP3      H2             -6.8694201925      -35.0425175413      -44.6691825593  TIP3      5463            0.0000000000
     41290      5664  TIP3      OH2            -9.6224590352      -23.0995939570      -47.1833023247  TIP3      5464            0.0000000000
     41291      5664  TIP3      H1            -10.4751463427      -22.9434897707      -46.7483738416  TIP3      5464            0.0000000000
     41292      5664  TIP3      H2             -9.3298658918      -22.1871909782      -47.3774609855  TIP3      5464            0.0000000000
     41293      5665  TIP3      OH2            -9.9094518673      -33.2206123453      -44.8658218080  TIP3      5465            0.0000000000
     41294      5665  TIP3      H1             -9.0610755736      -32.7588635513      -44.7278864992  TIP3      5465            0.0000000000
     41295      5665  TIP3      H2            -10.2063666822      -33.3805921906      -43.9449110356  TIP3      5465            0.0000000000
     41296      5666  TIP3      OH2            -9.4915703261      -32.2950416496      -35.7124156029  TIP3      5466            0.0000000000
     41297      5666  TIP3      H1             -9.3136418526      -31.8963450973      -34.8303556381  TIP3      5466            0.0000000000
     41298      5666  TIP3      H2             -9.0470853709      -33.1622544789      -35.7114245987  TIP3      5466            0.0000000000
     41299      5667  TIP3      OH2            -9.5131307178      -36.3744080582      -44.0308602804  TIP3      5467            0.0000000000
     41300      5667  TIP3      H1             -9.7484175978      -35.6628153264      -43.4069658820  TIP3      5467            0.0000000000
     41301      5667  TIP3      H2             -8.7038475882      -36.0053605344      -44.4625417726  TIP3      5467            0.0000000000
     41302      5668  TIP3      OH2           -12.3225422265      -22.1651133396      -46.7835105792  TIP3      5468            0.0000000000
     41303      5668  TIP3      H1            -12.1011097944      -21.3056159234      -47.2064136271  TIP3      5468            0.0000000000
     41304      5668  TIP3      H2            -12.5366321885      -21.8584383213      -45.8744594386  TIP3      5468            0.0000000000
     41305      5669  TIP3      OH2           -13.6507016127      -34.5090181828      -47.1018408852  TIP3      5469            0.0000000000
     41306      5669  TIP3      H1            -13.5221063682      -33.8823442543      -46.3588463411  TIP3      5469            0.0000000000
     41307      5669  TIP3      H2            -12.8466589150      -35.0460911199      -46.9697265623  TIP3      5469            0.0000000000
     41308      5670  TIP3      OH2            -3.5114679045      -34.4797939276      -34.9170139681  TIP3      5470            0.0000000000
     41309      5670  TIP3      H1             -4.4793120817      -34.5551460084      -35.0420965907  TIP3      5470            0.0000000000
     41310      5670  TIP3      H2             -3.2144146393      -34.5242494763      -35.8463433571  TIP3      5470            0.0000000000
     41311      5671  TIP3      OH2            -4.8211080441      -30.8164115438      -40.7153533842  TIP3      5471            0.0000000000
     41312      5671  TIP3      H1             -5.4855705383      -31.5200389250      -40.5595728185  TIP3      5471            0.0000000000
     41313      5671  TIP3      H2             -4.0544010656      -31.2298365645      -40.2605335996  TIP3      5471            0.0000000000
     41314      5672  TIP3      OH2           -15.2873493438      -25.0821617424      -48.0598925788  TIP3      5472            0.0000000000
     41315      5672  TIP3      H1            -14.3685148749      -24.8800922071      -47.7584895571  TIP3      5472            0.0000000000
     41316      5672  TIP3      H2            -15.1268664945      -25.1692472844      -49.0188762424  TIP3      5472            0.0000000000
     41317      5673  TIP3      OH2           -17.1749014209      -31.9951243060      -48.5720016906  TIP3      5473            0.0000000000
     41318      5673  TIP3      H1            -16.9578385591      -31.0425588287      -48.6331035530  TIP3      5473            0.0000000000
     41319      5673  TIP3      H2            -17.8894257363      -32.0785520172      -49.2297946066  TIP3      5473            0.0000000000
     41320      5674  TIP3      OH2            -3.6958193054      -21.2694301179      -39.1593007766  TIP3      5474            0.0000000000
     41321      5674  TIP3      H1             -3.7168665365      -20.5969238210      -39.8766276351  TIP3      5474            0.0000000000
     41322      5674  TIP3      H2             -2.7305876193      -21.4110868952      -39.1284008453  TIP3      5474            0.0000000000
     41323      5675  TIP3      OH2           -16.3725879495      -36.6757731346      -40.4727998263  TIP3      5475            0.0000000000
     41324      5675  TIP3      H1            -16.5963629850      -36.7612168814      -41.4271226148  TIP3      5475            0.0000000000
     41325      5675  TIP3      H2            -16.4580723916      -37.6355560498      -40.2544063847  TIP3      5475            0.0000000000
     41326      5676  TIP3      OH2           -17.6810419650      -23.5291568356      -44.1526618808  TIP3      5476            0.0000000000
     41327      5676  TIP3      H1            -18.4593497384      -22.9568866876      -44.1646714643  TIP3      5476            0.0000000000
     41328      5676  TIP3      H2            -17.2622627566      -23.1986813748      -44.9611962386  TIP3      5476            0.0000000000
     41329      5677  TIP3      OH2           -18.2343154145      -20.7401939456      -32.8742820185  TIP3      5477            0.0000000000
     41330      5677  TIP3      H1            -17.4759718769      -20.8842234860      -32.2731656626  TIP3      5477            0.0000000000
     41331      5677  TIP3      H2            -18.5213219828      -21.6623768782      -33.0394450618  TIP3      5477            0.0000000000
     41332      5678  TIP3      OH2           -13.2573598699      -21.8139253779      -31.3571262225  TIP3      5478            0.0000000000
     41333      5678  TIP3      H1            -12.4585411485      -22.2091243680      -30.9563662420  TIP3      5478            0.0000000000
     41334      5678  TIP3      H2            -13.3707374178      -22.3458953639      -32.1622344305  TIP3      5478            0.0000000000
     41335      5679  TIP3      OH2            -9.3865653111      -22.6632138898      -50.1111113806  TIP3      5479            0.0000000000
     41336      5679  TIP3      H1             -9.9822745518      -23.3283140450      -49.7416807548  TIP3      5479            0.0000000000
     41337      5679  TIP3      H2             -8.5575732840      -22.8982508707      -49.6668167877  TIP3      5479            0.0000000000
     41338      5680  TIP3      OH2            -7.1356880985      -23.3239739289      -32.4448687425  TIP3      5480            0.0000000000
     41339      5680  TIP3      H1             -7.5163926414      -24.1881948685      -32.1331170648  TIP3      5480            0.0000000000
     41340      5680  TIP3      H2             -6.4025167640      -23.2402586279      -31.8162242454  TIP3      5480            0.0000000000
     41341      5681  TIP3      OH2            -5.4948776204      -22.6865847031      -49.0823071631  TIP3      5481            0.0000000000
     41342      5681  TIP3      H1             -5.1910929097      -23.5983322040      -48.9106896785  TIP3      5481            0.0000000000
     41343      5681  TIP3      H2             -4.8222914535      -22.2986052561      -49.6801996992  TIP3      5481            0.0000000000
     41344      5682  TIP3      OH2           -18.4796214282      -26.9430244539      -31.8296206450  TIP3      5482            0.0000000000
     41345      5682  TIP3      H1            -18.5713409933      -27.8999884587      -31.9801022396  TIP3      5482            0.0000000000
     41346      5682  TIP3      H2            -18.8529802510      -26.5587908163      -32.6567099367  TIP3      5482            0.0000000000
     41347      5683  TIP3      OH2           -13.2639773729      -27.3722598566      -49.2630512269  TIP3      5483            0.0000000000
     41348      5683  TIP3      H1            -13.2804563146      -27.4449132863      -48.2809515025  TIP3      5483            0.0000000000
     41349      5683  TIP3      H2            -12.5304900282      -26.7474293178      -49.3204814827  TIP3      5483            0.0000000000
     41350      5684  TIP3      OH2           -11.6381104381      -26.9888320000      -32.8502848769  TIP3      5484            0.0000000000
     41351      5684  TIP3      H1            -11.7693867991      -26.5215908815      -33.7030470418  TIP3      5484            0.0000000000
     41352      5684  TIP3      H2            -11.7670963728      -27.9406641321      -33.0606051317  TIP3      5484            0.0000000000
     41353      5685  TIP3      OH2            -5.7759948036      -27.2782286758      -35.0660739861  TIP3      5485            0.0000000000
     41354      5685  TIP3      H1             -5.0093539285      -26.6723227483      -34.9665086726  TIP3      5485            0.0000000000
     41355      5685  TIP3      H2             -6.4783257474      -26.6156629009      -35.1106438765  TIP3      5485            0.0000000000
     41356      5686  TIP3      OH2           -17.2360870004      -29.8437932239      -32.4716682971  TIP3      5486            0.0000000000
     41357      5686  TIP3      H1            -16.4587078588      -30.4128928894      -32.5147977871  TIP3      5486            0.0000000000
     41358      5686  TIP3      H2            -17.0696919440      -29.3191861871      -31.6622606308  TIP3      5486            0.0000000000
     41359      5687  TIP3      OH2           -12.4952597719      -28.6175488884      -47.0466915021  TIP3      5487            0.0000000000
     41360      5687  TIP3      H1            -13.2857223127      -29.0732759705      -46.7047369345  TIP3      5487            0.0000000000
     41361      5687  TIP3      H2            -12.1877778826      -29.2338903098      -47.7451677268  TIP3      5487            0.0000000000
     41362      5688  TIP3      OH2           -13.6425490340      -30.8772255659      -35.7034384472  TIP3      5488            0.0000000000
     41363      5688  TIP3      H1            -14.2819920230      -30.1462180538      -35.5979776444  TIP3      5488            0.0000000000
     41364      5688  TIP3      H2            -12.8698207994      -30.3883852187      -36.0614990718  TIP3      5488            0.0000000000
     41365      5689  TIP3      OH2           -11.2922939606      -30.3403587840      -49.0217814131  TIP3      5489            0.0000000000
     41366      5689  TIP3      H1            -11.0009617752      -30.3957714469      -49.9400566682  TIP3      5489            0.0000000000
     41367      5689  TIP3      H2            -10.4222245221      -30.3525992270      -48.5724020240  TIP3      5489            0.0000000000
     41368      5690  TIP3      OH2            -7.9908165115      -28.0190467224      -31.7779711544  TIP3      5490            0.0000000000
     41369      5690  TIP3      H1             -7.2860328596      -28.3974441733      -32.3293757022  TIP3      5490            0.0000000000
     41370      5690  TIP3      H2             -8.3309110326      -28.8169821897      -31.3289097717  TIP3      5490            0.0000000000
     41371      5691  TIP3      OH2            -2.5336086848      -28.2369858285       50.0949228051  TIP3      5491            0.0000000000
     41372      5691  TIP3      H1             -1.7925081923      -28.6535387822       49.6079492836  TIP3      5491            0.0000000000
     41373      5691  TIP3      H2             -2.1868683537      -27.3277177728       50.0784348496  TIP3      5491            0.0000000000
     41374      5692  TIP3      OH2           -12.7842917123      -33.0627962952      -34.3107461351  TIP3      5492            0.0000000000
     41375      5692  TIP3      H1            -12.5004448215      -33.6987112418      -35.0039709688  TIP3      5492            0.0000000000
     41376      5692  TIP3      H2            -12.7219100057      -32.2340923794      -34.8333832179  TIP3      5492            0.0000000000
     41377      5693  TIP3      OH2           -12.5426802895      -34.8749906042      -36.2920437790  TIP3      5493            0.0000000000
     41378      5693  TIP3      H1            -12.0029946534      -34.5100288624      -37.0326589334  TIP3      5493            0.0000000000
     41379      5693  TIP3      H2            -13.4515249052      -34.7782362467      -36.6465221095  TIP3      5493            0.0000000000
     41380      5694  TIP3      OH2           -11.3183145853      -29.4033220194      -36.3733980911  TIP3      5494            0.0000000000
     41381      5694  TIP3      H1            -10.3897533855      -29.3016258641      -36.6125547948  TIP3      5494            0.0000000000
     41382      5694  TIP3      H2            -11.7450907505      -28.6575153988      -36.8531341240  TIP3      5494            0.0000000000
     41383      5695  TIP3      OH2            -6.7195759178      -31.8422344314      -31.5314449652  TIP3      5495            0.0000000000
     41384      5695  TIP3      H1             -6.4065279743      -32.7635808455      -31.5350173137  TIP3      5495            0.0000000000
     41385      5695  TIP3      H2             -5.9050579623      -31.3604023590      -31.3187913435  TIP3      5495            0.0000000000
     41386      5696  TIP3      OH2            -5.1925723540      -28.9979760421      -32.9790557312  TIP3      5496            0.0000000000
     41387      5696  TIP3      H1             -5.2659283504      -28.3901805851      -33.7418743594  TIP3      5496            0.0000000000
     41388      5696  TIP3      H2             -4.2628902968      -29.2897558683      -33.0661874568  TIP3      5496            0.0000000000
     41389      5697  TIP3      OH2           -14.5960832347      -32.3573461570      -32.3237032983  TIP3      5497            0.0000000000
     41390      5697  TIP3      H1            -15.4276880508      -32.8715782515      -32.4124726950  TIP3      5497            0.0000000000
     41391      5697  TIP3      H2            -14.0918236528      -32.6912191753      -33.1016925523  TIP3      5497            0.0000000000
     41392      5698  TIP3      OH2           -12.0145483779      -37.4299460580      -36.6894150282  TIP3      5498            0.0000000000
     41393      5698  TIP3      H1            -12.1772787189      -36.4816453717      -36.4739359197  TIP3      5498            0.0000000000
     41394      5698  TIP3      H2            -12.9259869052      -37.7278775217      -36.8098793801  TIP3      5498            0.0000000000
     41395      5699  TIP3      OH2           -10.4855978058      -33.3389330413      -32.4550294615  TIP3      5499            0.0000000000
     41396      5699  TIP3      H1            -11.1624305068      -33.6120782125      -31.8063155198  TIP3      5499            0.0000000000
     41397      5699  TIP3      H2            -10.9799670118      -33.4579161594      -33.2836331382  TIP3      5499            0.0000000000
     41398      5700  TIP3      OH2            -7.3356886326      -34.2700641181      -33.3886150654  TIP3      5500            0.0000000000
     41399      5700  TIP3      H1             -8.2180135291      -34.5320061641      -33.0940808416  TIP3      5500            0.0000000000
     41400      5700  TIP3      H2             -6.7611851355      -34.8391965240      -32.8173330088  TIP3      5500            0.0000000000
     41401      5701  TIP3      OH2            -5.7644639343      -35.3957149341      -31.5046553371  TIP3      5501            0.0000000000
     41402      5701  TIP3      H1             -5.6457984931      -36.3354840337      -31.2166613474  TIP3      5501            0.0000000000
     41403      5701  TIP3      H2             -6.2363779939      -35.0175931712      -30.7228176294  TIP3      5501            0.0000000000
     41404      5702  TIP3      OH2           -16.6418511053      -34.1269818815      -32.0155697593  TIP3      5502            0.0000000000
     41405      5702  TIP3      H1            -16.5458570422      -34.9014986288      -32.5896991406  TIP3      5502            0.0000000000
     41406      5702  TIP3      H2            -16.5209225934      -34.5006686849      -31.1143193796  TIP3      5502            0.0000000000
     41407      5703  TIP3      OH2           -12.0407784495      -37.5787562532      -33.7304532471  TIP3      5503            0.0000000000
     41408      5703  TIP3      H1            -12.2872466513      -38.5197915220      -33.7950897001  TIP3      5503            0.0000000000
     41409      5703  TIP3      H2            -11.4589478426      -37.4347819997      -34.4976662295  TIP3      5503            0.0000000000
     41410      5704  TIP3      OH2           -11.4960053595      -37.1534974484      -30.9584634313  TIP3      5504            0.0000000000
     41411      5704  TIP3      H1            -11.4145951347      -37.5048089125      -31.8693776326  TIP3      5504            0.0000000000
     41412      5704  TIP3      H2            -11.5347530516      -36.2022564944      -31.1097906531  TIP3      5504            0.0000000000
     41413      5705  TIP3      OH2           -11.9658123329      -19.7832513801      -47.9404274952  TIP3      5505            0.0000000000
     41414      5705  TIP3      H1            -10.9950832071      -19.8191034881      -47.9652243927  TIP3      5505            0.0000000000
     41415      5705  TIP3      H2            -12.1812928184      -19.5798695344      -48.8604157247  TIP3      5505            0.0000000000
     41416      5706  TIP3      OH2           -18.0156625467      -24.8796530221      -48.3567593375  TIP3      5506            0.0000000000
     41417      5706  TIP3      H1            -17.0363212018      -24.9836514263      -48.3292188074  TIP3      5506            0.0000000000
     41418      5706  TIP3      H2            -18.2643182364      -25.3927056170      -49.1439550314  TIP3      5506            0.0000000000
     41419      5707  TIP3      OH2           -19.3167709733      -20.0256655275      -43.7205638769  TIP3      5507            0.0000000000
     41420      5707  TIP3      H1            -20.1077559895      -20.5085612523      -44.0589963177  TIP3      5507            0.0000000000
     41421      5707  TIP3      H2            -19.0320087785      -20.6161468244      -42.9932972344  TIP3      5507            0.0000000000
     41422      5708  TIP3      OH2           -18.3766358028      -21.7449641789      -41.8099704194  TIP3      5508            0.0000000000
     41423      5708  TIP3      H1            -18.9648381482      -22.4617554764      -41.5224173396  TIP3      5508            0.0000000000
     41424      5708  TIP3      H2            -17.8475382661      -21.5634325097      -41.0021202449  TIP3      5508            0.0000000000
     41425      5709  TIP3      OH2            -0.8603925808      -20.8891237999      -39.2657096152  TIP3      5509            0.0000000000
     41426      5709  TIP3      H1             -0.7210967384      -20.8652069787      -38.3131430289  TIP3      5509            0.0000000000
     41427      5709  TIP3      H2             -0.3966606205      -20.0935205608      -39.5497606718  TIP3      5509            0.0000000000
     41428      5710  TIP3      OH2            -1.5717250584      -21.3347781719      -36.1825870149  TIP3      5510            0.0000000000
     41429      5710  TIP3      H1             -1.9288901865      -22.1241261244      -36.6477839835  TIP3      5510            0.0000000000
     41430      5710  TIP3      H2             -1.2078889023      -21.7485835476      -35.3809393543  TIP3      5510            0.0000000000
     41431      5711  TIP3      OH2            -2.7632523660      -25.4100206818      -31.0950337848  TIP3      5511            0.0000000000
     41432      5711  TIP3      H1             -3.6701845701      -25.4580987298      -30.7160879424  TIP3      5511            0.0000000000
     41433      5711  TIP3      H2             -2.6942447017      -24.4986812680      -31.3805389856  TIP3      5511            0.0000000000
     41434      5712  TIP3      OH2            -1.9590420221      -27.0432876902      -46.2068545244  TIP3      5512            0.0000000000
     41435      5712  TIP3      H1             -1.1280132362      -26.5952379806      -45.9348925031  TIP3      5512            0.0000000000
     41436      5712  TIP3      H2             -2.1771543451      -27.5217541090      -45.3921889308  TIP3      5512            0.0000000000
     41437      5713  TIP3      OH2            -1.4344482126      -28.9540590395      -43.7231176744  TIP3      5513            0.0000000000
     41438      5713  TIP3      H1             -2.2155773423      -29.5102877867      -43.4688124769  TIP3      5513            0.0000000000
     41439      5713  TIP3      H2             -0.9719055145      -28.8561059044      -42.8710344557  TIP3      5513            0.0000000000
     41440      5714  TIP3      OH2            -1.6725632310      -26.4370347638      -39.3373783738  TIP3      5514            0.0000000000
     41441      5714  TIP3      H1             -1.0060962810      -27.1541698304      -39.4021274740  TIP3      5514            0.0000000000
     41442      5714  TIP3      H2             -1.2066157918      -25.6858108503      -39.7507868053  TIP3      5514            0.0000000000
     41443      5715  TIP3      OH2            -2.9928543871      -23.5850343754      -36.8346200067  TIP3      5515            0.0000000000
     41444      5715  TIP3      H1             -3.6462178591      -23.1410313575      -36.2677433683  TIP3      5515            0.0000000000
     41445      5715  TIP3      H2             -3.5119207690      -23.7748727623      -37.6469682740  TIP3      5515            0.0000000000
     41446      5716  TIP3      OH2            -0.9114694887      -29.2289602515      -47.8101640763  TIP3      5516            0.0000000000
     41447      5716  TIP3      H1             -1.7207064047      -29.1514846804      -48.3482501662  TIP3      5516            0.0000000000
     41448      5716  TIP3      H2             -1.0055663134      -28.4218465383      -47.2667215089  TIP3      5516            0.0000000000
     41449      5717  TIP3      OH2            -3.0953202525      -32.0327732754      -48.3782230198  TIP3      5517            0.0000000000
     41450      5717  TIP3      H1             -3.2965819685      -31.3149832826      -48.9904902826  TIP3      5517            0.0000000000
     41451      5717  TIP3      H2             -2.8482507203      -32.7211485358      -49.0169010436  TIP3      5517            0.0000000000
     41452      5718  TIP3      OH2            -3.4070118191      -30.6050305871      -43.1524997806  TIP3      5518            0.0000000000
     41453      5718  TIP3      H1             -3.6649269567      -31.4930919916      -43.4446438253  TIP3      5518            0.0000000000
     41454      5718  TIP3      H2             -3.7311052836      -30.5741949879      -42.2284052199  TIP3      5518            0.0000000000
     41455      5719  TIP3      OH2           -18.5644086648      -28.3748948836      -39.2572798996  TIP3      5519            0.0000000000
     41456      5719  TIP3      H1            -18.6504492386      -28.6891932593      -40.1872684075  TIP3      5519            0.0000000000
     41457      5719  TIP3      H2            -17.6575058434      -28.7313772998      -39.0767835252  TIP3      5519            0.0000000000
     41458      5720  TIP3      OH2            -2.3361554447      -28.6745589787      -33.6923948711  TIP3      5520            0.0000000000
     41459      5720  TIP3      H1             -1.9305429972      -29.5460471734      -33.4345383631  TIP3      5520            0.0000000000
     41460      5720  TIP3      H2             -1.5266690576      -28.2132009491      -33.9908346429  TIP3      5520            0.0000000000
     41461      5721  TIP3      OH2            -1.5275828728      -31.0606766662      -32.8368825211  TIP3      5521            0.0000000000
     41462      5721  TIP3      H1             -2.3047845874      -31.5795662182      -33.1502883893  TIP3      5521            0.0000000000
     41463      5721  TIP3      H2             -0.7559791022      -31.6173829663      -33.0951069151  TIP3      5521            0.0000000000
     41464      5722  TIP3      OH2            -3.4146772318      -34.6077505990      -49.8893024007  TIP3      5522            0.0000000000
     41465      5722  TIP3      H1             -2.6981240425      -35.0213854482      -49.3686909614  TIP3      5522            0.0000000000
     41466      5722  TIP3      H2             -4.1736940132      -35.1755079787      -49.6826619628  TIP3      5522            0.0000000000
     41467      5723  TIP3      OH2            -3.9268754014      -32.7881966399      -44.8908248912  TIP3      5523            0.0000000000
     41468      5723  TIP3      H1             -3.6621318270      -33.7300420030      -44.7217103986  TIP3      5523            0.0000000000
     41469      5723  TIP3      H2             -3.0901822001      -32.4505636177      -45.2336214864  TIP3      5523            0.0000000000
     41470      5724  TIP3      OH2            -3.0893217690      -32.3032265051      -39.3594628579  TIP3      5524            0.0000000000
     41471      5724  TIP3      H1             -2.1338754307      -32.0537454582      -39.3078783413  TIP3      5524            0.0000000000
     41472      5724  TIP3      H2             -3.2588455851      -32.6546218392      -38.4751090852  TIP3      5524            0.0000000000
     41473      5725  TIP3      OH2            -2.9119424531      -31.5781662659      -36.6365829695  TIP3      5525            0.0000000000
     41474      5725  TIP3      H1             -3.8605502109      -31.3744513144      -36.6731751714  TIP3      5525            0.0000000000
     41475      5725  TIP3      H2             -2.4960715899      -30.7624326191      -37.0198402671  TIP3      5525            0.0000000000
     41476      5726  TIP3      OH2           -18.8009884161      -33.1397444563      -33.4286303590  TIP3      5526            0.0000000000
     41477      5726  TIP3      H1            -17.9536338287      -33.2780893496      -32.9567104031  TIP3      5526            0.0000000000
     41478      5726  TIP3      H2            -19.2881598557      -33.9600589674      -33.2007726186  TIP3      5526            0.0000000000
     41479      5727  TIP3      OH2            -0.3230981314      -37.6185552361      -31.2876461254  TIP3      5527            0.0000000000
     41480      5727  TIP3      H1              0.4279471891      -37.5987898652      -31.9225699867  TIP3      5527            0.0000000000
     41481      5727  TIP3      H2             -0.7866240788      -36.8409275997      -31.6501452857  TIP3      5527            0.0000000000
     41482      5728  TIP3      OH2            -3.0699246842      -35.2862292610      -44.6623042862  TIP3      5528            0.0000000000
     41483      5728  TIP3      H1             -2.8053135873      -35.8241854181      -43.8847350609  TIP3      5528            0.0000000000
     41484      5728  TIP3      H2             -3.7704166586      -35.8609654836      -45.0453300503  TIP3      5528            0.0000000000
     41485      5729  TIP3      OH2           -17.7631466217      -34.4314967063      -40.0998820275  TIP3      5529            0.0000000000
     41486      5729  TIP3      H1            -17.3960699541      -35.3372400896      -40.0262699855  TIP3      5529            0.0000000000
     41487      5729  TIP3      H2            -16.9654985171      -33.9082075091      -39.9283391131  TIP3      5529            0.0000000000
     41488      5730  TIP3      OH2           -19.2899021204      -31.7322815126      -39.2217597126  TIP3      5530            0.0000000000
     41489      5730  TIP3      H1            -18.6895161405      -32.0749461757      -39.9098226103  TIP3      5530            0.0000000000
     41490      5730  TIP3      H2            -18.6907824940      -31.0900302638      -38.8311806725  TIP3      5530            0.0000000000
     41491      5731  TIP3      OH2            -1.4470097646      -35.2238319150      -33.0335288076  TIP3      5531            0.0000000000
     41492      5731  TIP3      H1             -2.3278483317      -34.7992177553      -32.9163468307  TIP3      5531            0.0000000000
     41493      5731  TIP3      H2             -1.7024061663      -35.8793824857      -33.7087721012  TIP3      5531            0.0000000000
     41494      5732  TIP3      OH2            -1.2057198861      -35.4891779129      -48.4248373587  TIP3      5532            0.0000000000
     41495      5732  TIP3      H1             -0.7644472719      -35.9819025476      -49.1334403949  TIP3      5532            0.0000000000
     41496      5732  TIP3      H2             -0.5530133468      -34.7750484514      -48.2760141396  TIP3      5532            0.0000000000
     41497      5733  TIP3      OH2           -18.9896393193      -35.9487598017      -44.7018256353  TIP3      5533            0.0000000000
     41498      5733  TIP3      H1            -19.9163873105      -35.8013473455      -44.9536311749  TIP3      5533            0.0000000000
     41499      5733  TIP3      H2            -18.5615207862      -35.4240059541      -45.3989296596  TIP3      5533            0.0000000000
     41500      5734  TIP3      OH2            -4.1289755995      -20.8511063584      -43.0549655911  TIP3      5534            0.0000000000
     41501      5734  TIP3      H1             -3.4846469165      -20.9147679820      -43.7926034344  TIP3      5534            0.0000000000
     41502      5734  TIP3      H2             -3.7279959252      -20.2007498789      -42.4497873212  TIP3      5534            0.0000000000
     41503      5735  TIP3      OH2           -18.8918573153      -36.5880722810      -37.0411439961  TIP3      5535            0.0000000000
     41504      5735  TIP3      H1            -19.5847107982      -36.5126738468      -36.3551808370  TIP3      5535            0.0000000000
     41505      5735  TIP3      H2            -19.2176839666      -35.9256421518      -37.6846156434  TIP3      5535            0.0000000000
     41506      5736  TIP3      OH2           -16.7532642890      -23.8639520709      -32.9217267391  TIP3      5536            0.0000000000
     41507      5736  TIP3      H1            -17.6143080670      -23.5793534750      -33.2640556233  TIP3      5536            0.0000000000
     41508      5736  TIP3      H2            -16.9796653343      -24.2659455889      -32.0829388645  TIP3      5536            0.0000000000
     41509      5737  TIP3      OH2           -13.8744740153      -22.4423885815      -36.2528749132  TIP3      5537            0.0000000000
     41510      5737  TIP3      H1            -13.8479433489      -21.5214481486      -36.5964677995  TIP3      5537            0.0000000000
     41511      5737  TIP3      H2            -12.9173612957      -22.6308169216      -36.2774715751  TIP3      5537            0.0000000000
     41512      5738  TIP3      OH2            -9.7628310319      -21.3074846271      -33.8220581441  TIP3      5538            0.0000000000
     41513      5738  TIP3      H1             -9.8649392343      -21.5187528424      -32.8687048834  TIP3      5538            0.0000000000
     41514      5738  TIP3      H2             -8.8077362293      -21.1602324298      -33.8982330288  TIP3      5538            0.0000000000
     41515      5739  TIP3      OH2            -7.2367771733      -19.4689496299      -34.3003233557  TIP3      5539            0.0000000000
     41516      5739  TIP3      H1             -6.6898885085      -20.1766929465      -34.6766503355  TIP3      5539            0.0000000000
     41517      5739  TIP3      H2             -6.9662259801      -19.4863539117      -33.3595362976  TIP3      5539            0.0000000000
     41518      5740  TIP3      OH2            -2.1083555991      -36.7958666733      -35.2517316555  TIP3      5540            0.0000000000
     41519      5740  TIP3      H1             -2.9547223047      -36.5017075332      -35.6201118474  TIP3      5540            0.0000000000
     41520      5740  TIP3      H2             -2.2687435860      -37.7564132330      -35.2419016861  TIP3      5540            0.0000000000
     41521      5741  TIP3      OH2           -16.4260411575      -19.4295660608      -36.6131126116  TIP3      5541            0.0000000000
     41522      5741  TIP3      H1            -17.1721890903      -18.8542049619      -36.8959701030  TIP3      5541            0.0000000000
     41523      5741  TIP3      H2            -16.6081737449      -19.5061429224      -35.6698273636  TIP3      5541            0.0000000000
     41524      5742  TIP3      OH2           -14.0697642951      -20.0121707443      -37.5415992585  TIP3      5542            0.0000000000
     41525      5742  TIP3      H1            -14.9718795555      -19.8202342972      -37.1874262598  TIP3      5542            0.0000000000
     41526      5742  TIP3      H2            -14.1127836213      -19.4662483486      -38.3475849041  TIP3      5542            0.0000000000
     41527      5743  TIP3      OH2            -9.5594744865      -20.4721957941      -38.1903520674  TIP3      5543            0.0000000000
     41528      5743  TIP3      H1            -10.0373016219      -20.0085536932      -38.8918536339  TIP3      5543            0.0000000000
     41529      5743  TIP3      H2             -9.2467625922      -19.7233402187      -37.6394644646  TIP3      5543            0.0000000000
     41530      5744  TIP3      OH2            -7.3392116463      -21.4992545769      -36.7502310295  TIP3      5544            0.0000000000
     41531      5744  TIP3      H1             -7.9505115773      -21.2465303581      -37.4713585625  TIP3      5544            0.0000000000
     41532      5744  TIP3      H2             -6.5431231251      -21.0373292874      -37.0604258172  TIP3      5544            0.0000000000
     41533      5745  TIP3      OH2            -4.8370991318      -19.9560608438      -37.1570311018  TIP3      5545            0.0000000000
     41534      5745  TIP3      H1             -4.6456731157      -19.0779279129      -37.5398363558  TIP3      5545            0.0000000000
     41535      5745  TIP3      H2             -4.3950628557      -20.5011329798      -37.8548474970  TIP3      5545            0.0000000000
     41536      5746  TIP3      OH2           -16.8611256533      -21.1184462133      -39.6044842392  TIP3      5546            0.0000000000
     41537      5746  TIP3      H1            -17.0819161615      -21.7312483456      -38.8751765243  TIP3      5546            0.0000000000
     41538      5746  TIP3      H2            -16.0022324067      -21.4933184786      -39.9127529380  TIP3      5546            0.0000000000
     41539      5747  TIP3      OH2           -14.7742390951      -22.1813698573      -40.8358921514  TIP3      5547            0.0000000000
     41540      5747  TIP3      H1            -14.8903927104      -23.1232542243      -40.5722463997  TIP3      5547            0.0000000000
     41541      5747  TIP3      H2            -13.8828627139      -22.0075189046      -40.4548615214  TIP3      5547            0.0000000000
     41542      5748  TIP3      OH2           -12.4359557962      -22.1488575193      -39.6409808748  TIP3      5548            0.0000000000
     41543      5748  TIP3      H1            -12.1333870909      -23.0674400001      -39.7777726974  TIP3      5548            0.0000000000
     41544      5748  TIP3      H2            -12.3160100656      -22.0638470285      -38.6774276357  TIP3      5548            0.0000000000
     41545      5749  TIP3      OH2            -8.9511347585      -35.5745959140      -40.8106417887  TIP3      5549            0.0000000000
     41546      5749  TIP3      H1             -9.4584002310      -36.4081701779      -40.7332049230  TIP3      5549            0.0000000000
     41547      5749  TIP3      H2             -8.3946595373      -35.7763506224      -41.5763586898  TIP3      5549            0.0000000000
     41548      5750  TIP3      OH2            -4.0655790617      -37.2479466201      -40.8574566792  TIP3      5550            0.0000000000
     41549      5750  TIP3      H1             -3.3993786915      -37.0011754365      -41.5282851677  TIP3      5550            0.0000000000
     41550      5750  TIP3      H2             -4.9033006938      -36.9588893803      -41.2776096673  TIP3      5550            0.0000000000
     41551      5751  TIP3      OH2            -1.8384155735      -36.4768092822      -42.5674034333  TIP3      5551            0.0000000000
     41552      5751  TIP3      H1             -1.2570426826      -36.9292906053      -43.2068236009  TIP3      5551            0.0000000000
     41553      5751  TIP3      H2             -1.3204145880      -35.6415729059      -42.4331793203  TIP3      5551            0.0000000000
     41554      5752  TIP3      OH2           -16.8229673626      -37.0165049244      -43.0533618923  TIP3      5552            0.0000000000
     41555      5752  TIP3      H1            -17.4093617303      -36.8301596991      -43.8162259275  TIP3      5552            0.0000000000
     41556      5752  TIP3      H2            -16.7261962878      -37.9939126288      -43.1118298381  TIP3      5552            0.0000000000
     41557      5753  TIP3      OH2           -17.4416270925      -37.0766253737      -46.6326818837  TIP3      5553            0.0000000000
     41558      5753  TIP3      H1            -17.1203206385      -36.7023050296      -47.4757337120  TIP3      5553            0.0000000000
     41559      5753  TIP3      H2            -18.3604640044      -36.7670469124      -46.6555471653  TIP3      5553            0.0000000000
     41560      5754  TIP3      OH2           -11.9775330464      -37.1706218219      -43.3844637302  TIP3      5554            0.0000000000
     41561      5754  TIP3      H1            -11.1549244472      -36.8090324070      -43.7636773390  TIP3      5554            0.0000000000
     41562      5754  TIP3      H2            -11.7448084213      -37.1128073686      -42.4321853146  TIP3      5554            0.0000000000
     41563      5755  TIP3      OH2            -6.5960758712      -36.8516669232      -42.0449422947  TIP3      5555            0.0000000000
     41564      5755  TIP3      H1             -6.3841247391      -36.9733237189      -42.9795209393  TIP3      5555            0.0000000000
     41565      5755  TIP3      H2             -6.7165466182      -37.7708541133      -41.7319344062  TIP3      5555            0.0000000000
     41566      5756  TIP3      OH2            -5.0063455718      -36.5291143668      -45.9209068234  TIP3      5556            0.0000000000
     41567      5756  TIP3      H1             -5.9184511530      -36.2000643821      -46.0275087124  TIP3      5556            0.0000000000
     41568      5756  TIP3      H2             -5.1208113918      -37.4757776229      -46.1302320972  TIP3      5556            0.0000000000
     41569      5757  TIP3      OH2           -17.8458834954      -21.7514219510      -46.2516079337  TIP3      5557            0.0000000000
     41570      5757  TIP3      H1            -18.7344228010      -21.7558296194      -46.6591509422  TIP3      5557            0.0000000000
     41571      5757  TIP3      H2            -17.5963019868      -20.8282258706      -46.4184978945  TIP3      5557            0.0000000000
     41572      5758  TIP3      OH2           -16.0926307688      -36.2642581233      -48.8688234308  TIP3      5558            0.0000000000
     41573      5758  TIP3      H1            -15.4507114714      -36.9024924501      -49.2006573339  TIP3      5558            0.0000000000
     41574      5758  TIP3      H2            -15.5121619237      -35.7204772663      -48.3203621266  TIP3      5558            0.0000000000
     41575      5759  TIP3      OH2           -11.1309432474      -35.2750603944      -46.3761041188  TIP3      5559            0.0000000000
     41576      5759  TIP3      H1            -10.6879239066      -35.9253892132      -45.8078743426  TIP3      5559            0.0000000000
     41577      5759  TIP3      H2            -10.8501790607      -34.4538159123      -45.9177302656  TIP3      5559            0.0000000000
     41578      5760  TIP3      OH2            -9.1438255501      -20.5669861923      -48.2276782053  TIP3      5560            0.0000000000
     41579      5760  TIP3      H1             -8.1671134072      -20.3638796465      -48.2095165158  TIP3      5560            0.0000000000
     41580      5760  TIP3      H2             -9.1677291364      -20.9975298721      -49.1043697357  TIP3      5560            0.0000000000
     41581      5761  TIP3      OH2            -2.4866452890      -21.3428383328      -44.9978859662  TIP3      5561            0.0000000000
     41582      5761  TIP3      H1             -2.5730082320      -22.2299443062      -45.4253209488  TIP3      5561            0.0000000000
     41583      5761  TIP3      H2             -2.6767571716      -20.7449025037      -45.7448580300  TIP3      5561            0.0000000000
     41584      5762  TIP3      OH2           -17.2515486007      -37.1719645874      -33.0680711064  TIP3      5562            0.0000000000
     41585      5762  TIP3      H1            -17.3438778627      -38.0345217850      -33.4994766143  TIP3      5562            0.0000000000
     41586      5762  TIP3      H2            -16.3095589744      -37.2230069538      -32.7953056224  TIP3      5562            0.0000000000
     41587      5763  TIP3      OH2           -14.7631149942      -37.2408820914      -32.0825427388  TIP3      5563            0.0000000000
     41588      5763  TIP3      H1            -13.8916415944      -36.9429569982      -32.4045804860  TIP3      5563            0.0000000000
     41589      5763  TIP3      H2            -14.7146549247      -38.1814914522      -32.3895130219  TIP3      5563            0.0000000000
     41590      5764  TIP3      OH2           -15.7919607060      -20.5047239592      -48.7091404494  TIP3      5564            0.0000000000
     41591      5764  TIP3      H1            -16.4219066016      -20.3037476263      -48.0031880589  TIP3      5564            0.0000000000
     41592      5764  TIP3      H2            -15.3785768853      -21.3245857922      -48.4109538119  TIP3      5564            0.0000000000
     41593      5765  TIP3      OH2            -5.6534711533      -37.9567286226      -31.1263911332  TIP3      5565            0.0000000000
     41594      5765  TIP3      H1             -6.2502188017      -38.7009182234      -30.9452427166  TIP3      5565            0.0000000000
     41595      5765  TIP3      H2             -5.0272529444      -38.4175336594      -31.7317573789  TIP3      5565            0.0000000000
     41596      5766  TIP3      OH2            -3.3948870051      -22.1867315892      -33.0180296574  TIP3      5566            0.0000000000
     41597      5766  TIP3      H1             -4.0679309135      -22.2434810845      -33.7465162341  TIP3      5566            0.0000000000
     41598      5766  TIP3      H2             -3.3699073056      -21.2102385379      -32.9306306892  TIP3      5566            0.0000000000
     41599      5767  TIP3      OH2            11.4367179948      -28.3049030986      -43.1114901896  TIP3      5567            0.0000000000
     41600      5767  TIP3      H1             11.4212598903      -27.3663350780      -42.8555626705  TIP3      5567            0.0000000000
     41601      5767  TIP3      H2             10.8476328702      -28.2748740728      -43.8775814251  TIP3      5567            0.0000000000
     41602      5768  TIP3      OH2            10.2559156686      -29.5060557388      -39.6623942824  TIP3      5568            0.0000000000
     41603      5768  TIP3      H1             10.0545525612      -30.0423815166      -38.8646153601  TIP3      5568            0.0000000000
     41604      5768  TIP3      H2              9.6910228459      -29.9480824091      -40.3325831402  TIP3      5568            0.0000000000
     41605      5769  TIP3      OH2             2.3725550637      -29.5145051194      -38.7174003486  TIP3      5569            0.0000000000
     41606      5769  TIP3      H1              2.4084329341      -30.2984079714      -38.1557110804  TIP3      5569            0.0000000000
     41607      5769  TIP3      H2              2.7949224358      -28.8694071739      -38.1142280129  TIP3      5569            0.0000000000
     41608      5770  TIP3      OH2            13.5374381677      -26.4123970008      -41.1851498434  TIP3      5570            0.0000000000
     41609      5770  TIP3      H1             13.3933375001      -27.1688063738      -40.5923104575  TIP3      5570            0.0000000000
     41610      5770  TIP3      H2             13.7182286424      -25.7095026300      -40.5453165422  TIP3      5570            0.0000000000
     41611      5771  TIP3      OH2             3.6094896648      -24.8362028812      -39.8800908158  TIP3      5571            0.0000000000
     41612      5771  TIP3      H1              3.2719038403      -25.7399939993      -40.0629884382  TIP3      5571            0.0000000000
     41613      5771  TIP3      H2              4.5520592450      -25.0256895693      -40.0587333715  TIP3      5571            0.0000000000
     41614      5772  TIP3      OH2             0.0730297482      -31.6369345875      -44.0888846260  TIP3      5572            0.0000000000
     41615      5772  TIP3      H1             -0.2273952393      -30.7722810795      -43.7810348170  TIP3      5572            0.0000000000
     41616      5772  TIP3      H2             -0.3636966381      -31.6951054995      -44.9647418895  TIP3      5572            0.0000000000
     41617      5773  TIP3      OH2             0.5371942643      -29.1338734818      -41.7221918668  TIP3      5573            0.0000000000
     41618      5773  TIP3      H1              1.0157526676      -29.9604727466      -41.4904701762  TIP3      5573            0.0000000000
     41619      5773  TIP3      H2              1.1653282527      -28.6565877686      -42.2757409411  TIP3      5573            0.0000000000
     41620      5774  TIP3      OH2            11.2834259657      -20.8570563860      -41.0264609668  TIP3      5574            0.0000000000
     41621      5774  TIP3      H1             11.9471825474      -21.4154572081      -41.5053902166  TIP3      5574            0.0000000000
     41622      5774  TIP3      H2             10.7704907269      -21.5741232520      -40.6282732274  TIP3      5574            0.0000000000
     41623      5775  TIP3      OH2             8.5986508409      -26.5740426236      -39.0451156834  TIP3      5575            0.0000000000
     41624      5775  TIP3      H1              8.9211161821      -27.2954965318      -39.6065151379  TIP3      5575            0.0000000000
     41625      5775  TIP3      H2              9.4273651839      -26.3856924909      -38.5509792946  TIP3      5575            0.0000000000
     41626      5776  TIP3      OH2            17.1818566715      -35.4407023027      -38.8049011310  TIP3      5576            0.0000000000
     41627      5776  TIP3      H1             17.1999245090      -34.6223836564      -38.2593607560  TIP3      5576            0.0000000000
     41628      5776  TIP3      H2             17.8261672480      -35.2165808944      -39.4966416840  TIP3      5576            0.0000000000
     41629      5777  TIP3      OH2            12.2088603700      -32.1326019008      -38.6193971055  TIP3      5577            0.0000000000
     41630      5777  TIP3      H1             12.3600375861      -33.0786707448      -38.4574616917  TIP3      5577            0.0000000000
     41631      5777  TIP3      H2             11.7217539132      -32.1336282470      -39.4599486059  TIP3      5577            0.0000000000
     41632      5778  TIP3      OH2             4.9776592136      -34.2365882822      -42.0851195854  TIP3      5578            0.0000000000
     41633      5778  TIP3      H1              5.1436783029      -33.4481625241      -42.6466418738  TIP3      5578            0.0000000000
     41634      5778  TIP3      H2              4.5400627332      -34.8307356665      -42.7350559166  TIP3      5578            0.0000000000
     41635      5779  TIP3      OH2            12.6225529746      -34.1478900557      -43.4767491283  TIP3      5579            0.0000000000
     41636      5779  TIP3      H1             13.0431612660      -34.3312292216      -42.6064976329  TIP3      5579            0.0000000000
     41637      5779  TIP3      H2             13.2696657010      -33.5145973905      -43.8232706578  TIP3      5579            0.0000000000
     41638      5780  TIP3      OH2             1.5392021164      -31.6726633859      -40.9632066922  TIP3      5580            0.0000000000
     41639      5780  TIP3      H1              2.2769895881      -32.0327600944      -40.4371006312  TIP3      5580            0.0000000000
     41640      5780  TIP3      H2              1.6811642306      -32.0859051439      -41.8291214645  TIP3      5580            0.0000000000
     41641      5781  TIP3      OH2             6.4438903412      -30.1265537544      -41.4956343868  TIP3      5581            0.0000000000
     41642      5781  TIP3      H1              7.2579343513      -30.6075317029      -41.2448038385  TIP3      5581            0.0000000000
     41643      5781  TIP3      H2              6.1382426415      -30.6988392263      -42.2246583399  TIP3      5581            0.0000000000
     41644      5782  TIP3      OH2            17.4839389622      -33.7511459743      -36.5860026211  TIP3      5582            0.0000000000
     41645      5782  TIP3      H1             17.0162260269      -32.9009419749      -36.7449998216  TIP3      5582            0.0000000000
     41646      5782  TIP3      H2             17.3758635676      -33.8596644301      -35.6307978897  TIP3      5582            0.0000000000
     41647      5783  TIP3      OH2             3.8705177621      -35.2024488905      -37.7434109558  TIP3      5583            0.0000000000
     41648      5783  TIP3      H1              3.5551449770      -34.5853120268      -38.4459316846  TIP3      5583            0.0000000000
     41649      5783  TIP3      H2              3.1648020769      -35.1142533868      -37.0717544933  TIP3      5583            0.0000000000
     41650      5784  TIP3      OH2            10.8548294729      -25.8047056486      -44.2434018128  TIP3      5584            0.0000000000
     41651      5784  TIP3      H1             10.6913352261      -25.7883754864      -45.2123237867  TIP3      5584            0.0000000000
     41652      5784  TIP3      H2             10.6995046170      -24.8642273990      -44.0303316790  TIP3      5584            0.0000000000
     41653      5785  TIP3      OH2             6.2601388792      -27.6523733211      -37.8687575826  TIP3      5585            0.0000000000
     41654      5785  TIP3      H1              5.6498479030      -26.9654270412      -37.5217002615  TIP3      5585            0.0000000000
     41655      5785  TIP3      H2              6.9042042631      -27.1050908896      -38.3729950392  TIP3      5585            0.0000000000
     41656      5786  TIP3      OH2            14.3388598919      -34.0958207136      -41.5086782946  TIP3      5586            0.0000000000
     41657      5786  TIP3      H1             14.0548076943      -34.5347200174      -40.6847455285  TIP3      5586            0.0000000000
     41658      5786  TIP3      H2             15.2660875704      -33.9289426611      -41.3083332789  TIP3      5586            0.0000000000
     41659      5787  TIP3      OH2             3.6704271872      -33.2488876375      -39.7864844912  TIP3      5587            0.0000000000
     41660      5787  TIP3      H1              4.2256098399      -32.5027728802      -39.4591182790  TIP3      5587            0.0000000000
     41661      5787  TIP3      H2              4.1679498804      -33.5343408211      -40.5911082149  TIP3      5587            0.0000000000
     41662      5788  TIP3      OH2             4.9313159259      -25.5253291007      -36.8701586283  TIP3      5588            0.0000000000
     41663      5788  TIP3      H1              4.7276374429      -24.6414258566      -37.2210066653  TIP3      5588            0.0000000000
     41664      5788  TIP3      H2              4.0935406453      -25.7236505449      -36.3985079415  TIP3      5588            0.0000000000
     41665      5789  TIP3      OH2             0.6465598350      -26.1169578930      -45.9742685909  TIP3      5589            0.0000000000
     41666      5789  TIP3      H1              0.6652077435      -25.5425649912      -46.7768788925  TIP3      5589            0.0000000000
     41667      5789  TIP3      H2              0.7679724571      -25.4591283455      -45.2594372886  TIP3      5589            0.0000000000
     41668      5790  TIP3      OH2            14.4116057131      -24.2753795286      -39.2047030671  TIP3      5590            0.0000000000
     41669      5790  TIP3      H1             13.5060913782      -24.0272106761      -38.9367063710  TIP3      5590            0.0000000000
     41670      5790  TIP3      H2             14.6758505882      -23.4306620770      -39.6219603551  TIP3      5590            0.0000000000
     41671      5791  TIP3      OH2            14.7199123643      -36.2088839025      -37.7827193533  TIP3      5591            0.0000000000
     41672      5791  TIP3      H1             14.0425564617      -35.9985939784      -38.4625297789  TIP3      5591            0.0000000000
     41673      5791  TIP3      H2             15.5344345613      -36.1097548491      -38.3173026112  TIP3      5591            0.0000000000
     41674      5792  TIP3      OH2             7.8483801311      -37.3803500962      -40.7850451806  TIP3      5592            0.0000000000
     41675      5792  TIP3      H1              7.8467632670      -38.2651385552      -40.3519127237  TIP3      5592            0.0000000000
     41676      5792  TIP3      H2              7.2811245596      -36.8792469070      -40.1639796300  TIP3      5592            0.0000000000
     41677      5793  TIP3      OH2            12.8782281707      -22.5678860579      -42.3192122362  TIP3      5593            0.0000000000
     41678      5793  TIP3      H1             12.9769215458      -23.3653578770      -42.8688553237  TIP3      5593            0.0000000000
     41679      5793  TIP3      H2             13.6317263625      -22.0350070579      -42.6783703466  TIP3      5593            0.0000000000
     41680      5794  TIP3      OH2            13.8721285604      -24.7128566880      -43.9310226402  TIP3      5594            0.0000000000
     41681      5794  TIP3      H1             13.7023488327      -25.4191011933      -44.5856907689  TIP3      5594            0.0000000000
     41682      5794  TIP3      H2             13.7330705426      -25.2021771645      -43.1039403132  TIP3      5594            0.0000000000
     41683      5795  TIP3      OH2            15.4707264846      -25.9147155290      -35.3920854809  TIP3      5595            0.0000000000
     41684      5795  TIP3      H1             15.6656009956      -26.5884956698      -36.0800017484  TIP3      5595            0.0000000000
     41685      5795  TIP3      H2             15.5729407702      -25.1091974904      -35.9295529634  TIP3      5595            0.0000000000
     41686      5796  TIP3      OH2            10.0863167701      -28.8772745586      -45.6535019748  TIP3      5596            0.0000000000
     41687      5796  TIP3      H1              9.6025670550      -28.0667660327      -45.9165224747  TIP3      5596            0.0000000000
     41688      5796  TIP3      H2             10.8145723530      -28.9253501201      -46.3077265663  TIP3      5596            0.0000000000
     41689      5797  TIP3      OH2            10.5634035971      -30.5439917513      -48.6518452048  TIP3      5597            0.0000000000
     41690      5797  TIP3      H1             11.3559264962      -30.1960383432      -48.1772489974  TIP3      5597            0.0000000000
     41691      5797  TIP3      H2             10.9297840381      -31.4058378192      -48.9564774619  TIP3      5597            0.0000000000
     41692      5798  TIP3      OH2            17.5094787372      -29.5166813929      -37.5175334879  TIP3      5598            0.0000000000
     41693      5798  TIP3      H1             16.8904521898      -28.7632539830      -37.4162891314  TIP3      5598            0.0000000000
     41694      5798  TIP3      H2             18.0985081287      -29.1466188154      -38.2060450136  TIP3      5598            0.0000000000
     41695      5799  TIP3      OH2            13.6098617781      -29.1725344722      -44.5730845010  TIP3      5599            0.0000000000
     41696      5799  TIP3      H1             12.8812505985      -28.9305341544      -43.9512662613  TIP3      5599            0.0000000000
     41697      5799  TIP3      H2             14.2813470984      -29.5453284290      -43.9538428068  TIP3      5599            0.0000000000
     41698      5800  TIP3      OH2            13.5482174558      -30.8653275735      -35.4385336838  TIP3      5600            0.0000000000
     41699      5800  TIP3      H1             13.4583328517      -29.9224859242      -35.1985777266  TIP3      5600            0.0000000000
     41700      5800  TIP3      H2             12.9132567459      -30.8965748453      -36.1767141310  TIP3      5600            0.0000000000
     41701      5801  TIP3      OH2             4.8708503362      -28.2190234583      -42.7699548576  TIP3      5601            0.0000000000
     41702      5801  TIP3      H1              4.5291258520      -28.4970758780      -43.6500826507  TIP3      5601            0.0000000000
     41703      5801  TIP3      H2              5.5159785912      -28.9252394435      -42.5780721091  TIP3      5601            0.0000000000
     41704      5802  TIP3      OH2             6.4517977227      -25.0129323388      -40.2293778160  TIP3      5602            0.0000000000
     41705      5802  TIP3      H1              6.5627875068      -25.2721156878      -41.1483735721  TIP3      5602            0.0000000000
     41706      5802  TIP3      H2              7.2210291126      -25.4348739896      -39.7897994116  TIP3      5602            0.0000000000
     41707      5803  TIP3      OH2             5.2207197973      -29.7190652797      -39.0944364149  TIP3      5603            0.0000000000
     41708      5803  TIP3      H1              5.6152595461      -29.6466810287      -39.9907600347  TIP3      5603            0.0000000000
     41709      5803  TIP3      H2              5.6520660283      -28.9703430336      -38.6204786174  TIP3      5603            0.0000000000
     41710      5804  TIP3      OH2            11.8770126224      -23.8755266720      -38.3671903721  TIP3      5604            0.0000000000
     41711      5804  TIP3      H1             11.7767418373      -23.4044378201      -37.5246910395  TIP3      5604            0.0000000000
     41712      5804  TIP3      H2             11.7123765088      -24.7970665069      -38.0734147846  TIP3      5604            0.0000000000
     41713      5805  TIP3      OH2             6.3573927519      -25.1950184979      -34.5511518375  TIP3      5605            0.0000000000
     41714      5805  TIP3      H1              5.6242818876      -24.6649264080      -34.1485998020  TIP3      5605            0.0000000000
     41715      5805  TIP3      H2              6.0213843310      -25.2990904749      -35.4702490880  TIP3      5605            0.0000000000
     41716      5806  TIP3      OH2            12.4388732425      -29.6161191290      -46.9465348934  TIP3      5606            0.0000000000
     41717      5806  TIP3      H1             12.8796237409      -29.4750365143      -46.0673689467  TIP3      5606            0.0000000000
     41718      5806  TIP3      H2             13.0237065704      -29.0626802496      -47.5247229247  TIP3      5606            0.0000000000
     41719      5807  TIP3      OH2             3.0574614193      -28.5084102395      -36.2336502876  TIP3      5607            0.0000000000
     41720      5807  TIP3      H1              3.4671995308      -27.8954824944      -35.6133365002  TIP3      5607            0.0000000000
     41721      5807  TIP3      H2              2.8512978438      -29.2432035990      -35.6009177452  TIP3      5607            0.0000000000
     41722      5808  TIP3      OH2             9.9950710695      -23.0421866748      -44.1715759902  TIP3      5608            0.0000000000
     41723      5808  TIP3      H1             10.0632420643      -22.7441886704      -43.2627690193  TIP3      5608            0.0000000000
     41724      5808  TIP3      H2              9.5186084541      -22.3202311971      -44.6153467550  TIP3      5608            0.0000000000
     41725      5809  TIP3      OH2             4.5886273475      -23.4677205302      -33.7241138565  TIP3      5609            0.0000000000
     41726      5809  TIP3      H1              4.5307624050      -23.1215157368      -34.6407448179  TIP3      5609            0.0000000000
     41727      5809  TIP3      H2              3.6586319299      -23.4892913039      -33.4457690377  TIP3      5609            0.0000000000
     41728      5810  TIP3      OH2            16.2433459877      -37.4125913863      -47.0569675114  TIP3      5610            0.0000000000
     41729      5810  TIP3      H1             15.5295456200      -36.9454258455      -46.5859436371  TIP3      5610            0.0000000000
     41730      5810  TIP3      H2             16.4923420161      -36.7484227818      -47.7302294373  TIP3      5610            0.0000000000
     41731      5811  TIP3      OH2             3.9811049295      -29.2100135062      -45.1070336622  TIP3      5611            0.0000000000
     41732      5811  TIP3      H1              3.5235674890      -28.5300820032      -45.6372752021  TIP3      5611            0.0000000000
     41733      5811  TIP3      H2              3.5660472436      -30.0311490533      -45.4069889601  TIP3      5611            0.0000000000
     41734      5812  TIP3      OH2            17.2262604620      -23.3987052648      -48.6598016683  TIP3      5612            0.0000000000
     41735      5812  TIP3      H1             17.4473016147      -22.4548062382      -48.5083556258  TIP3      5612            0.0000000000
     41736      5812  TIP3      H2             18.0625192465      -23.8606436975      -48.4576723814  TIP3      5612            0.0000000000
     41737      5813  TIP3      OH2             0.2158950103      -26.5251912201      -36.3306799608  TIP3      5613            0.0000000000
     41738      5813  TIP3      H1             -0.3723073059      -26.6788591253      -37.0875717877  TIP3      5613            0.0000000000
     41739      5813  TIP3      H2              0.4659406401      -27.4537517046      -36.1176641427  TIP3      5613            0.0000000000
     41740      5814  TIP3      OH2             0.0971501316      -24.1010802078      -39.6107101131  TIP3      5614            0.0000000000
     41741      5814  TIP3      H1              1.0248779302      -24.3421189169      -39.4909620961  TIP3      5614            0.0000000000
     41742      5814  TIP3      H2              0.0274006281      -23.3190936276      -39.0469173099  TIP3      5614            0.0000000000
     41743      5815  TIP3      OH2            18.3541423399      -23.4191424595      -33.8191649644  TIP3      5615            0.0000000000
     41744      5815  TIP3      H1             17.8467821869      -24.2476282391      -33.8988886248  TIP3      5615            0.0000000000
     41745      5815  TIP3      H2             17.6193553495      -22.7617825423      -33.7284888180  TIP3      5615            0.0000000000
     41746      5816  TIP3      OH2             8.9083550298      -24.0334729063      -34.8489249752  TIP3      5616            0.0000000000
     41747      5816  TIP3      H1              9.1250496797      -23.2185934520      -34.3634917943  TIP3      5616            0.0000000000
     41748      5816  TIP3      H2              8.0278764307      -24.2883813710      -34.5093996977  TIP3      5616            0.0000000000
     41749      5817  TIP3      OH2             9.2768956796      -20.1623268856      -45.4206231599  TIP3      5617            0.0000000000
     41750      5817  TIP3      H1              9.6144187419      -20.0122544565      -46.3214976813  TIP3      5617            0.0000000000
     41751      5817  TIP3      H2              9.5169456363      -19.3135848083      -44.9928429381  TIP3      5617            0.0000000000
     41752      5818  TIP3      OH2             3.2799599619      -21.4392485310      -43.3523023029  TIP3      5618            0.0000000000
     41753      5818  TIP3      H1              3.5245941906      -21.7470890461      -42.4441489412  TIP3      5618            0.0000000000
     41754      5818  TIP3      H2              2.3859254334      -21.8254087124      -43.4132462609  TIP3      5618            0.0000000000
     41755      5819  TIP3      OH2            12.2732263154      -20.3507860458      -47.8931923279  TIP3      5619            0.0000000000
     41756      5819  TIP3      H1             12.7671566978      -21.1205257418      -48.2584162407  TIP3      5619            0.0000000000
     41757      5819  TIP3      H2             12.6706552392      -20.2621462281      -47.0156770143  TIP3      5619            0.0000000000
     41758      5820  TIP3      OH2            12.1784717210      -20.9669805288      -45.1072756919  TIP3      5620            0.0000000000
     41759      5820  TIP3      H1             11.2250614582      -21.0077478072      -44.9735039183  TIP3      5620            0.0000000000
     41760      5820  TIP3      H2             12.4908779252      -21.7701168456      -44.6577834077  TIP3      5620            0.0000000000
     41761      5821  TIP3      OH2            14.9291820778      -32.0969353832      -33.3017872447  TIP3      5621            0.0000000000
     41762      5821  TIP3      H1             14.5186806181      -31.6417065561      -34.0740370262  TIP3      5621            0.0000000000
     41763      5821  TIP3      H2             15.0246007917      -33.0053558699      -33.6507865632  TIP3      5621            0.0000000000
     41764      5822  TIP3      OH2             2.5749618492      -25.4589872861      -35.5172835357  TIP3      5622            0.0000000000
     41765      5822  TIP3      H1              2.5797410550      -25.8513847874      -34.6170771535  TIP3      5622            0.0000000000
     41766      5822  TIP3      H2              1.7110391551      -25.7968774416      -35.8393149693  TIP3      5622            0.0000000000
     41767      5823  TIP3      OH2             5.4280096392      -36.2766791834      -39.7046424870  TIP3      5623            0.0000000000
     41768      5823  TIP3      H1              4.5988556695      -36.0918399227      -40.1869742697  TIP3      5623            0.0000000000
     41769      5823  TIP3      H2              5.2588117049      -35.7543727551      -38.8953411164  TIP3      5623            0.0000000000
     41770      5824  TIP3      OH2             9.2334057239      -36.6284687233      -35.5023434375  TIP3      5624            0.0000000000
     41771      5824  TIP3      H1              9.7591908282      -37.4443872908      -35.6121047436  TIP3      5624            0.0000000000
     41772      5824  TIP3      H2              8.4617925113      -36.8921752851      -36.0332804679  TIP3      5624            0.0000000000
     41773      5825  TIP3      OH2            12.8188785035      -33.5122451812      -35.3470701045  TIP3      5625            0.0000000000
     41774      5825  TIP3      H1             12.2027262297      -33.7327339969      -34.6110185728  TIP3      5625            0.0000000000
     41775      5825  TIP3      H2             13.0390823709      -32.5816566264      -35.1673069768  TIP3      5625            0.0000000000
     41776      5826  TIP3      OH2            13.9923352697      -28.4182175954      -48.6324454368  TIP3      5626            0.0000000000
     41777      5826  TIP3      H1             13.5841699406      -28.3595083571      -49.5330030554  TIP3      5626            0.0000000000
     41778      5826  TIP3      H2             14.9094768813      -28.1997002571      -48.8930536383  TIP3      5626            0.0000000000
     41779      5827  TIP3      OH2             9.1434307941      -34.7021841800      -48.7408086399  TIP3      5627            0.0000000000
     41780      5827  TIP3      H1              8.9307547900      -35.1853041564      -47.9210705569  TIP3      5627            0.0000000000
     41781      5827  TIP3      H2              8.6647167246      -35.2024239603      -49.4122174559  TIP3      5627            0.0000000000
     41782      5828  TIP3      OH2             5.2223583519      -32.0580321576      -37.8787964965  TIP3      5628            0.0000000000
     41783      5828  TIP3      H1              4.3117356437      -32.1128183420      -37.5061753716  TIP3      5628            0.0000000000
     41784      5828  TIP3      H2              5.2537183744      -31.1227002993      -38.1875876369  TIP3      5628            0.0000000000
     41785      5829  TIP3      OH2             5.2093099015      -31.8933099603      -43.4496968135  TIP3      5629            0.0000000000
     41786      5829  TIP3      H1              4.2368079235      -32.0121650926      -43.5345929119  TIP3      5629            0.0000000000
     41787      5829  TIP3      H2              5.5353922345      -32.0801553949      -44.3555799286  TIP3      5629            0.0000000000
     41788      5830  TIP3      OH2            11.0893611155      -31.3401617645      -44.4668984787  TIP3      5630            0.0000000000
     41789      5830  TIP3      H1             10.6019010601      -30.5598688202      -44.8117652019  TIP3      5630            0.0000000000
     41790      5830  TIP3      H2             11.6078405939      -31.5519938972      -45.2629863624  TIP3      5630            0.0000000000
     41791      5831  TIP3      OH2             9.6109379265      -31.0698905133      -33.2510293875  TIP3      5631            0.0000000000
     41792      5831  TIP3      H1              9.1494613928      -31.8905017893      -32.9584282832  TIP3      5631            0.0000000000
     41793      5831  TIP3      H2             10.3231963368      -31.0067166957      -32.5970548038  TIP3      5631            0.0000000000
     41794      5832  TIP3      OH2            11.6482885500      -32.0819259325      -41.5264679342  TIP3      5632            0.0000000000
     41795      5832  TIP3      H1             11.7713679863      -31.2701316272      -42.0553305960  TIP3      5632            0.0000000000
     41796      5832  TIP3      H2             11.7654238991      -32.7439663911      -42.2306167993  TIP3      5632            0.0000000000
     41797      5833  TIP3      OH2             2.6597983509      -32.0766275190      -36.9543332997  TIP3      5633            0.0000000000
     41798      5833  TIP3      H1              2.7674616841      -31.5632763069      -36.1179605561  TIP3      5633            0.0000000000
     41799      5833  TIP3      H2              2.3094252140      -32.8861638741      -36.5236119687  TIP3      5633            0.0000000000
     41800      5834  TIP3      OH2             5.8916176754      -34.2356054946      -49.6951421599  TIP3      5634            0.0000000000
     41801      5834  TIP3      H1              5.5491469860      -34.4032700675      -48.7869811933  TIP3      5634            0.0000000000
     41802      5834  TIP3      H2              5.1150588759      -33.8054200424      -50.1142234854  TIP3      5634            0.0000000000
     41803      5835  TIP3      OH2            -0.2581401360      -34.2736702521      -42.5018416606  TIP3      5635            0.0000000000
     41804      5835  TIP3      H1              0.4265623341      -34.5210962979      -41.8560282425  TIP3      5635            0.0000000000
     41805      5835  TIP3      H2              0.1227760031      -34.4693088747      -43.3673703888  TIP3      5635            0.0000000000
     41806      5836  TIP3      OH2             0.6540943301      -33.9484905343      -46.7691183191  TIP3      5636            0.0000000000
     41807      5836  TIP3      H1              1.3972943591      -33.5317803481      -47.2483214496  TIP3      5636            0.0000000000
     41808      5836  TIP3      H2              0.0753407108      -33.1758457843      -46.6386763153  TIP3      5636            0.0000000000
     41809      5837  TIP3      OH2            10.6895630260      -30.4802646828      -37.1761036305  TIP3      5637            0.0000000000
     41810      5837  TIP3      H1             11.3292561122      -31.0636672817      -37.6406610071  TIP3      5637            0.0000000000
     41811      5837  TIP3      H2             10.1613602843      -31.1330216794      -36.6479034688  TIP3      5637            0.0000000000
     41812      5838  TIP3      OH2             7.9584996503      -34.3673630288      -42.2789496482  TIP3      5638            0.0000000000
     41813      5838  TIP3      H1              7.0486105510      -34.6911858612      -42.1759826154  TIP3      5638            0.0000000000
     41814      5838  TIP3      H2              8.3664117288      -34.6849821876      -41.4515678983  TIP3      5638            0.0000000000
     41815      5839  TIP3      OH2             2.5616326774      -32.6413255550      -43.5237901835  TIP3      5639            0.0000000000
     41816      5839  TIP3      H1              1.6486230770      -32.4440506661      -43.8323037193  TIP3      5639            0.0000000000
     41817      5839  TIP3      H2              2.7442897359      -33.5331503848      -43.8736261331  TIP3      5639            0.0000000000
     41818      5840  TIP3      OH2             6.2545864500      -32.6361179507      -45.7742316034  TIP3      5640            0.0000000000
     41819      5840  TIP3      H1              7.2237538743      -32.5748978612      -45.6844294342  TIP3      5640            0.0000000000
     41820      5840  TIP3      H2              6.0242132577      -32.0061861665      -46.4996828371  TIP3      5640            0.0000000000
     41821      5841  TIP3      OH2            12.4071426752      -35.2593007545      -39.1717356295  TIP3      5641            0.0000000000
     41822      5841  TIP3      H1             11.7257081586      -35.2468644598      -38.4679721668  TIP3      5641            0.0000000000
     41823      5841  TIP3      H2             11.9040174674      -35.6181665805      -39.9133592632  TIP3      5641            0.0000000000
     41824      5842  TIP3      OH2             5.0829542698      -31.2901155536      -47.8470515889  TIP3      5642            0.0000000000
     41825      5842  TIP3      H1              4.4302494413      -31.8719208569      -48.2723037850  TIP3      5642            0.0000000000
     41826      5842  TIP3      H2              5.7221644408      -31.1539895381      -48.5713557912  TIP3      5642            0.0000000000
     41827      5843  TIP3      OH2            15.1401736626      -19.3839554065      -32.6514722728  TIP3      5643            0.0000000000
     41828      5843  TIP3      H1             15.5409514200      -18.8683556133      -33.3695074958  TIP3      5643            0.0000000000
     41829      5843  TIP3      H2             15.9333781922      -19.5960334688      -32.1302320234  TIP3      5643            0.0000000000
     41830      5844  TIP3      OH2             2.7809120700      -27.0861034582      -33.2351374188  TIP3      5644            0.0000000000
     41831      5844  TIP3      H1              3.5560136896      -26.8275779890      -32.7163872987  TIP3      5644            0.0000000000
     41832      5844  TIP3      H2              2.1778484007      -27.4633220447      -32.5701416206  TIP3      5644            0.0000000000
     41833      5845  TIP3      OH2             8.9696729939      -31.5767979307      -40.6158447357  TIP3      5645            0.0000000000
     41834      5845  TIP3      H1              9.7108486330      -31.9569247293      -41.1265048422  TIP3      5645            0.0000000000
     41835      5845  TIP3      H2              8.8510392661      -32.2545287309      -39.9482418590  TIP3      5645            0.0000000000
     41836      5846  TIP3      OH2             3.6957469769      -35.3356606848      -44.1482670230  TIP3      5646            0.0000000000
     41837      5846  TIP3      H1              3.1867292246      -36.0317879129      -43.6731047609  TIP3      5646            0.0000000000
     41838      5846  TIP3      H2              4.3282635416      -35.8896741987      -44.6245895957  TIP3      5646            0.0000000000
     41839      5847  TIP3      OH2             7.5365366206      -33.5483023529      -38.2088885888  TIP3      5647            0.0000000000
     41840      5847  TIP3      H1              6.8725930853      -32.8306889988      -38.2122860160  TIP3      5647            0.0000000000
     41841      5847  TIP3      H2              8.2640493952      -33.1067596353      -37.7450846632  TIP3      5647            0.0000000000
     41842      5848  TIP3      OH2             8.2581951749      -26.8610691677      -46.1333371533  TIP3      5648            0.0000000000
     41843      5848  TIP3      H1              7.5664929114      -27.4971414313      -46.4283741675  TIP3      5648            0.0000000000
     41844      5848  TIP3      H2              7.9149156304      -26.6826717715      -45.2248627985  TIP3      5648            0.0000000000
     41845      5849  TIP3      OH2            15.7964682184      -27.4550595561      -37.4813907305  TIP3      5649            0.0000000000
     41846      5849  TIP3      H1             16.2319805639      -26.9417638729      -38.2103375822  TIP3      5649            0.0000000000
     41847      5849  TIP3      H2             14.9669991493      -27.6973382426      -37.9310281512  TIP3      5649            0.0000000000
     41848      5850  TIP3      OH2            11.5944772542      -34.3090045883      -47.7811707192  TIP3      5650            0.0000000000
     41849      5850  TIP3      H1             10.7328161279      -34.0080525607      -48.1415306066  TIP3      5650            0.0000000000
     41850      5850  TIP3      H2             12.0968619904      -33.4662105150      -47.6465141063  TIP3      5650            0.0000000000
     41851      5851  TIP3      OH2             9.5497108393      -26.6650208293      -34.8033702356  TIP3      5651            0.0000000000
     41852      5851  TIP3      H1              9.1650218343      -26.8125095746      -33.9220751306  TIP3      5651            0.0000000000
     41853      5851  TIP3      H2              9.4057039944      -25.7000874738      -34.8892558554  TIP3      5651            0.0000000000
     41854      5852  TIP3      OH2            12.9677295755      -32.3300468930      -46.8143693142  TIP3      5652            0.0000000000
     41855      5852  TIP3      H1             13.6453880487      -32.4819607391      -46.1289862895  TIP3      5652            0.0000000000
     41856      5852  TIP3      H2             13.1768468976      -31.4178109651      -47.0769486328  TIP3      5652            0.0000000000
     41857      5853  TIP3      OH2             3.4578314547      -27.4238967309      -40.6472774803  TIP3      5653            0.0000000000
     41858      5853  TIP3      H1              3.8983472358      -27.6508493566      -41.4978644320  TIP3      5653            0.0000000000
     41859      5853  TIP3      H2              3.5559099262      -28.2422115801      -40.1332559129  TIP3      5653            0.0000000000
     41860      5854  TIP3      OH2            10.3030660231      -25.4387114948      -46.8659076391  TIP3      5654            0.0000000000
     41861      5854  TIP3      H1              9.9168058754      -24.5451518897      -46.7438704388  TIP3      5654            0.0000000000
     41862      5854  TIP3      H2              9.5083958309      -26.0128017253      -46.7829733106  TIP3      5654            0.0000000000
     41863      5855  TIP3      OH2             0.0421541054      -29.0187158613      -34.9488158210  TIP3      5655            0.0000000000
     41864      5855  TIP3      H1              0.5305043238      -29.7739331080      -34.5445280748  TIP3      5655            0.0000000000
     41865      5855  TIP3      H2             -0.5524544081      -29.4674498907      -35.5778079079  TIP3      5655            0.0000000000
     41866      5856  TIP3      OH2             7.1349466701      -29.6742463211      -33.3770351627  TIP3      5656            0.0000000000
     41867      5856  TIP3      H1              6.5592833077      -30.2812830666      -33.8945874534  TIP3      5656            0.0000000000
     41868      5856  TIP3      H2              7.9544944875      -30.1998205141      -33.3408173536  TIP3      5656            0.0000000000
     41869      5857  TIP3      OH2            12.2899126789      -24.4071921826      -35.0772479650  TIP3      5657            0.0000000000
     41870      5857  TIP3      H1             11.3750279996      -24.1182185736      -34.9494775226  TIP3      5657            0.0000000000
     41871      5857  TIP3      H2             12.7532130597      -24.1651850354      -34.2458500719  TIP3      5657            0.0000000000
     41872      5858  TIP3      OH2            17.6557681634      -31.9422974110      -46.4654062619  TIP3      5658            0.0000000000
     41873      5858  TIP3      H1             16.9756930710      -32.1720020300      -47.1455002395  TIP3      5658            0.0000000000
     41874      5858  TIP3      H2             17.7690264578      -30.9993478630      -46.6860788327  TIP3      5658            0.0000000000
     41875      5859  TIP3      OH2            17.7119327372      -26.2597849349      -33.9610869266  TIP3      5659            0.0000000000
     41876      5859  TIP3      H1             16.8135901575      -26.1243561434      -34.3488558250  TIP3      5659            0.0000000000
     41877      5859  TIP3      H2             18.2510919276      -26.2445255908      -34.7830778413  TIP3      5659            0.0000000000
     41878      5860  TIP3      OH2            16.1036465532      -23.7011188784      -46.2233800326  TIP3      5660            0.0000000000
     41879      5860  TIP3      H1             15.2240702048      -24.1081045350      -46.2012109342  TIP3      5660            0.0000000000
     41880      5860  TIP3      H2             16.3175704030      -23.6407786152      -47.1797464204  TIP3      5660            0.0000000000
     41881      5861  TIP3      OH2            13.2091854778      -28.4987052411      -39.3562404469  TIP3      5661            0.0000000000
     41882      5861  TIP3      H1             12.2851125718      -28.6709061981      -39.5966067742  TIP3      5661            0.0000000000
     41883      5861  TIP3      H2             13.6710283624      -29.2041508523      -39.8443796826  TIP3      5661            0.0000000000
     41884      5862  TIP3      OH2             5.6831670907      -24.3227129934      -42.9612947053  TIP3      5662            0.0000000000
     41885      5862  TIP3      H1              6.1382154332      -23.5033231019      -43.2249702074  TIP3      5662            0.0000000000
     41886      5862  TIP3      H2              4.7886391792      -24.1490404943      -43.2770237283  TIP3      5662            0.0000000000
     41887      5863  TIP3      OH2             1.6354582454      -29.3101815319      -48.9027351399  TIP3      5663            0.0000000000
     41888      5863  TIP3      H1              2.1484908010      -28.7432264370      -48.2918988857  TIP3      5663            0.0000000000
     41889      5863  TIP3      H2              0.7398229101      -29.2323264443      -48.5142044087  TIP3      5663            0.0000000000
     41890      5864  TIP3      OH2             7.0392034617      -26.5981554905      -43.7042557024  TIP3      5664            0.0000000000
     41891      5864  TIP3      H1              6.5369945506      -25.7619755136      -43.5984810410  TIP3      5664            0.0000000000
     41892      5864  TIP3      H2              6.6302281410      -27.1563156811      -43.0180101113  TIP3      5664            0.0000000000
     41893      5865  TIP3      OH2             7.6193545538      -22.3589341844      -36.6397619081  TIP3      5665            0.0000000000
     41894      5865  TIP3      H1              8.2167565478      -21.7229354241      -37.0620634024  TIP3      5665            0.0000000000
     41895      5865  TIP3      H2              8.2202055728      -22.8314712196      -36.0345932599  TIP3      5665            0.0000000000
     41896      5866  TIP3      OH2             6.0964152255      -21.7331264194      -43.8856077315  TIP3      5666            0.0000000000
     41897      5866  TIP3      H1              5.1361329375      -21.6318655600      -43.7667344778  TIP3      5666            0.0000000000
     41898      5866  TIP3      H2              6.3809548047      -20.8051248473      -43.7255097165  TIP3      5666            0.0000000000
     41899      5867  TIP3      OH2            10.7482625816      -26.4480354884      -37.4621723269  TIP3      5667            0.0000000000
     41900      5867  TIP3      H1             10.3349244179      -26.6840604634      -36.6008060395  TIP3      5667            0.0000000000
     41901      5867  TIP3      H2             11.1681021159      -27.2891820453      -37.7068073614  TIP3      5667            0.0000000000
     41902      5868  TIP3      OH2            13.5400560905      -25.2792452158      -48.5880548379  TIP3      5668            0.0000000000
     41903      5868  TIP3      H1             13.7967561149      -25.7075340996      -47.7445574695  TIP3      5668            0.0000000000
     41904      5868  TIP3      H2             12.5875498678      -25.4451243526      -48.5168093119  TIP3      5668            0.0000000000
     41905      5869  TIP3      OH2            13.8971808347      -21.5152743999      -35.0245341143  TIP3      5669            0.0000000000
     41906      5869  TIP3      H1             13.2419624538      -22.2241061049      -35.1155552696  TIP3      5669            0.0000000000
     41907      5869  TIP3      H2             13.9866979109      -21.1416270233      -35.9332478933  TIP3      5669            0.0000000000
     41908      5870  TIP3      OH2            17.9650806470      -20.8736143904      -48.1202347120  TIP3      5670            0.0000000000
     41909      5870  TIP3      H1             18.6541429094      -20.2450220591      -48.4053909583  TIP3      5670            0.0000000000
     41910      5870  TIP3      H2             17.3773721452      -20.2486629950      -47.6079191007  TIP3      5670            0.0000000000
     41911      5871  TIP3      OH2             2.1563835811      -34.3890574845      -35.4949178408  TIP3      5671            0.0000000000
     41912      5871  TIP3      H1              1.5695046298      -33.7932456396      -34.9792368202  TIP3      5671            0.0000000000
     41913      5871  TIP3      H2              1.7559165368      -35.2567530856      -35.3614112767  TIP3      5671            0.0000000000
     41914      5872  TIP3      OH2            14.2539301170      -26.6734694051      -46.2965097386  TIP3      5672            0.0000000000
     41915      5872  TIP3      H1             14.1167022575      -27.6320375813      -46.3136841248  TIP3      5672            0.0000000000
     41916      5872  TIP3      H2             15.2308224633      -26.6606030809      -46.2821306088  TIP3      5672            0.0000000000
     41917      5873  TIP3      OH2             1.7153299919      -22.7904305501      -37.2817163868  TIP3      5673            0.0000000000
     41918      5873  TIP3      H1              2.2848387986      -23.5751777222      -37.2322090274  TIP3      5673            0.0000000000
     41919      5873  TIP3      H2              2.1250169008      -22.2405351643      -36.5993905958  TIP3      5673            0.0000000000
     41920      5874  TIP3      OH2             6.1016052970      -24.7778719485      -47.5299570489  TIP3      5674            0.0000000000
     41921      5874  TIP3      H1              6.9050931547      -25.1572304221      -47.1288298809  TIP3      5674            0.0000000000
     41922      5874  TIP3      H2              6.2028693456      -23.8372629383      -47.2622699899  TIP3      5674            0.0000000000
     41923      5875  TIP3      OH2             2.7261302634      -27.5214248402      -47.0373357956  TIP3      5675            0.0000000000
     41924      5875  TIP3      H1              1.9798241326      -27.0406204630      -46.6113285116  TIP3      5675            0.0000000000
     41925      5875  TIP3      H2              3.2341698376      -26.7752706293      -47.4131019153  TIP3      5675            0.0000000000
     41926      5876  TIP3      OH2            10.8062708800      -34.8104882201      -36.7258562222  TIP3      5676            0.0000000000
     41927      5876  TIP3      H1             11.5540314720      -34.7212500771      -36.1086185319  TIP3      5676            0.0000000000
     41928      5876  TIP3      H2             10.2169340440      -35.3887392804      -36.1946269602  TIP3      5676            0.0000000000
     41929      5877  TIP3      OH2            11.4735666352      -35.4958205768      -45.3828579797  TIP3      5677            0.0000000000
     41930      5877  TIP3      H1             11.4794379316      -34.8435659593      -46.1175957842  TIP3      5677            0.0000000000
     41931      5877  TIP3      H2             12.0077982380      -35.0482713490      -44.6831232048  TIP3      5677            0.0000000000
     41932      5878  TIP3      OH2             9.1267012784      -22.9262066221      -47.0746886536  TIP3      5678            0.0000000000
     41933      5878  TIP3      H1              8.3071388064      -22.6684338986      -46.6150710609  TIP3      5678            0.0000000000
     41934      5878  TIP3      H2              9.4610832965      -22.0463563546      -47.3330970202  TIP3      5678            0.0000000000
     41935      5879  TIP3      OH2             8.9235222484      -33.2898172998      -44.8698156456  TIP3      5679            0.0000000000
     41936      5879  TIP3      H1              9.7559881430      -32.8121345155      -44.7464590545  TIP3      5679            0.0000000000
     41937      5879  TIP3      H2              8.6434403073      -33.4689582812      -43.9454464266  TIP3      5679            0.0000000000
     41938      5880  TIP3      OH2             9.4366040690      -32.2381728843      -35.6239375007  TIP3      5680            0.0000000000
     41939      5880  TIP3      H1              9.6185908687      -31.7535114286      -34.7830433618  TIP3      5680            0.0000000000
     41940      5880  TIP3      H2              9.6326479660      -33.1624282235      -35.4219100723  TIP3      5680            0.0000000000
     41941      5881  TIP3      OH2             9.3583536333      -36.2975688014      -44.0622715946  TIP3      5681            0.0000000000
     41942      5881  TIP3      H1              9.1739974126      -35.6393354427      -43.3674678190  TIP3      5681            0.0000000000
     41943      5881  TIP3      H2             10.1730332059      -35.9380478280      -44.4837120699  TIP3      5681            0.0000000000
     41944      5882  TIP3      OH2             6.4788856191      -22.1483662196      -46.6643800372  TIP3      5682            0.0000000000
     41945      5882  TIP3      H1              6.7262250523      -21.2868973178      -47.0742102598  TIP3      5682            0.0000000000
     41946      5882  TIP3      H2              6.1791594508      -21.8505021399      -45.7808530037  TIP3      5682            0.0000000000
     41947      5883  TIP3      OH2             5.0981843495      -34.5782489490      -47.1609260734  TIP3      5683            0.0000000000
     41948      5883  TIP3      H1              5.2731560453      -33.9539383702      -46.4258324764  TIP3      5683            0.0000000000
     41949      5883  TIP3      H2              5.8672800717      -35.1641369560      -47.0204171674  TIP3      5683            0.0000000000
     41950      5884  TIP3      OH2            15.2560872106      -34.4490094838      -34.8495592631  TIP3      5684            0.0000000000
     41951      5884  TIP3      H1             14.2952442227      -34.2466318576      -34.9289375156  TIP3      5684            0.0000000000
     41952      5884  TIP3      H2             15.4531795229      -34.7264320902      -35.7586356371  TIP3      5684            0.0000000000
     41953      5885  TIP3      OH2            14.0317069798      -31.0081658084      -40.6631745125  TIP3      5685            0.0000000000
     41954      5885  TIP3      H1             13.3966612877      -31.7222896326      -40.4740123739  TIP3      5685            0.0000000000
     41955      5885  TIP3      H2             14.8077305708      -31.3740762139      -40.1931216750  TIP3      5685            0.0000000000
     41956      5886  TIP3      OH2             3.5289434847      -25.1018860384      -48.1189877060  TIP3      5686            0.0000000000
     41957      5886  TIP3      H1              4.4567025510      -24.8942173228      -47.8567922335  TIP3      5686            0.0000000000
     41958      5886  TIP3      H2              3.6786375497      -25.2818522969      -49.0706524145  TIP3      5686            0.0000000000
     41959      5887  TIP3      OH2             1.8668269441      -32.0468004800      -48.5256418353  TIP3      5687            0.0000000000
     41960      5887  TIP3      H1              1.9744075647      -31.0732414041      -48.5928091214  TIP3      5687            0.0000000000
     41961      5887  TIP3      H2              1.1547487374      -32.2102891203      -49.1640492723  TIP3      5687            0.0000000000
     41962      5888  TIP3      OH2            15.0244460995      -21.5006712923      -39.3578118050  TIP3      5688            0.0000000000
     41963      5888  TIP3      H1             14.9200869579      -20.8599684225      -40.0858352514  TIP3      5688            0.0000000000
     41964      5888  TIP3      H2             16.0022001496      -21.4580460924      -39.2877738997  TIP3      5688            0.0000000000
     41965      5889  TIP3      OH2             2.6715008046      -36.7275932661      -40.3168731343  TIP3      5689            0.0000000000
     41966      5889  TIP3      H1              2.4824033556      -36.9332720209      -41.2603938354  TIP3      5689            0.0000000000
     41967      5889  TIP3      H2              2.4973146394      -37.6350375400      -39.9842312343  TIP3      5689            0.0000000000
     41968      5890  TIP3      OH2             1.1817564657      -23.6675998635      -44.2638304662  TIP3      5690            0.0000000000
     41969      5890  TIP3      H1              0.4916298642      -23.0191185698      -44.0610281999  TIP3      5690            0.0000000000
     41970      5890  TIP3      H2              1.6185361320      -23.2114430850      -44.9994386227  TIP3      5690            0.0000000000
     41971      5891  TIP3      OH2             0.6270078347      -20.8907631250      -32.9996586824  TIP3      5691            0.0000000000
     41972      5891  TIP3      H1              1.4313012399      -21.0229863431      -32.4703999090  TIP3      5691            0.0000000000
     41973      5891  TIP3      H2              0.3287009447      -21.8167332461      -33.1484191211  TIP3      5691            0.0000000000
     41974      5892  TIP3      OH2             9.4247630938      -22.7192787613      -50.1146184985  TIP3      5692            0.0000000000
     41975      5892  TIP3      H1              8.7411345172      -23.3462821547      -49.8453535035  TIP3      5692            0.0000000000
     41976      5892  TIP3      H2             10.1862804500      -23.0819070167      -49.6351207047  TIP3      5692            0.0000000000
     41977      5893  TIP3      OH2            11.5949696634      -23.1960815418      -32.3809032323  TIP3      5693            0.0000000000
     41978      5893  TIP3      H1             11.2837099021      -24.1171044232      -32.2112709098  TIP3      5693            0.0000000000
     41979      5893  TIP3      H2             12.5752177236      -23.3356609764      -32.3154654804  TIP3      5693            0.0000000000
     41980      5894  TIP3      OH2            13.4670674135      -22.6424434299      -48.9198055548  TIP3      5694            0.0000000000
     41981      5894  TIP3      H1             13.7282973752      -23.5798620662      -48.9307344247  TIP3      5694            0.0000000000
     41982      5894  TIP3      H2             13.9800508994      -22.2152305355      -49.6364043428  TIP3      5694            0.0000000000
     41983      5895  TIP3      OH2             0.2007716453      -26.9417528092      -31.6671234349  TIP3      5695            0.0000000000
     41984      5895  TIP3      H1              0.1138843975      -27.9115506157      -31.7775618695  TIP3      5695            0.0000000000
     41985      5895  TIP3      H2             -0.2148508193      -26.6043034080      -32.4964502725  TIP3      5695            0.0000000000
     41986      5896  TIP3      OH2             5.4172683647      -27.2567611010      -49.5150200750  TIP3      5696            0.0000000000
     41987      5896  TIP3      H1              5.1963173482      -27.4148361017      -48.5902458816  TIP3      5696            0.0000000000
     41988      5896  TIP3      H2              6.1558265868      -26.6311345593      -49.4016954821  TIP3      5696            0.0000000000
     41989      5897  TIP3      OH2             7.2132024471      -27.0322624599      -32.8541376454  TIP3      5697            0.0000000000
     41990      5897  TIP3      H1              6.9741220703      -26.4236442540      -33.5938627172  TIP3      5697            0.0000000000
     41991      5897  TIP3      H2              7.1520477461      -27.9323082966      -33.2678121518  TIP3      5697            0.0000000000
     41992      5898  TIP3      OH2            13.0118256579      -27.2153471339      -35.0100060796  TIP3      5698            0.0000000000
     41993      5898  TIP3      H1             13.8719702439      -26.7437410972      -34.9566815110  TIP3      5698            0.0000000000
     41994      5898  TIP3      H2             12.4091944671      -26.4459686367      -35.0193206752  TIP3      5698            0.0000000000
     41995      5899  TIP3      OH2             1.2561672273      -29.6012222459      -31.8016303514  TIP3      5699            0.0000000000
     41996      5899  TIP3      H1              1.7237268146      -29.9235256237      -32.6096995971  TIP3      5699            0.0000000000
     41997      5899  TIP3      H2              1.9525239898      -29.5713485095      -31.1254305210  TIP3      5699            0.0000000000
     41998      5900  TIP3      OH2             6.3811840044      -28.5995838352      -47.0884336601  TIP3      5700            0.0000000000
     41999      5900  TIP3      H1              5.6164068780      -28.9949444879      -46.6242300408  TIP3      5700            0.0000000000
     42000      5900  TIP3      H2              6.6183243640      -29.2939029043      -47.7375983067  TIP3      5700            0.0000000000
     42001      5901  TIP3      OH2             5.7990904390      -30.9597552494      -35.2200736087  TIP3      5701            0.0000000000
     42002      5901  TIP3      H1              4.8594821698      -30.7255231806      -35.1065975760  TIP3      5701            0.0000000000
     42003      5901  TIP3      H2              6.0886078799      -30.5133041628      -36.0404414776  TIP3      5701            0.0000000000
     42004      5902  TIP3      OH2             7.5516005663      -30.3266815914      -49.0594846588  TIP3      5702            0.0000000000
     42005      5902  TIP3      H1              7.8216393918      -30.6679295529      -49.9226451576  TIP3      5702            0.0000000000
     42006      5902  TIP3      H2              8.4152000056      -30.3502102472      -48.5949953235  TIP3      5702            0.0000000000
     42007      5903  TIP3      OH2            10.8210568753      -28.0767429343      -31.7102506038  TIP3      5703            0.0000000000
     42008      5903  TIP3      H1             11.4858242291      -28.3977665012      -32.3344423698  TIP3      5703            0.0000000000
     42009      5903  TIP3      H2             10.7370250096      -28.8042152063      -31.0570729137  TIP3      5703            0.0000000000
     42010      5904  TIP3      OH2            16.3040367933      -28.3233592858       49.9662359413  TIP3      5704            0.0000000000
     42011      5904  TIP3      H1             17.0144150831      -28.8095992049       49.5140757499  TIP3      5704            0.0000000000
     42012      5904  TIP3      H2             16.7299774983      -27.4422599966       49.8984952194  TIP3      5704            0.0000000000
     42013      5905  TIP3      OH2             6.0906804625      -33.4047229739      -34.2442912960  TIP3      5705            0.0000000000
     42014      5905  TIP3      H1              6.1680043567      -34.0583140589      -34.9692224553  TIP3      5705            0.0000000000
     42015      5905  TIP3      H2              6.2746788987      -32.5652134254      -34.7280177777  TIP3      5705            0.0000000000
     42016      5906  TIP3      OH2             6.1683858056      -34.9860697301      -36.3994284147  TIP3      5706            0.0000000000
     42017      5906  TIP3      H1              6.6900061322      -34.6246668213      -37.1439344252  TIP3      5706            0.0000000000
     42018      5906  TIP3      H2              5.2495663056      -34.8026108060      -36.6914862641  TIP3      5706            0.0000000000
     42019      5907  TIP3      OH2             7.8374605891      -29.5935744728      -36.8257639756  TIP3      5707            0.0000000000
     42020      5907  TIP3      H1              8.7115228264      -29.2483285363      -36.6225492473  TIP3      5707            0.0000000000
     42021      5907  TIP3      H2              7.3124110094      -28.7906373029      -37.0111228808  TIP3      5707            0.0000000000
     42022      5908  TIP3      OH2            12.0621665968      -32.0221811616      -31.5622412332  TIP3      5708            0.0000000000
     42023      5908  TIP3      H1             12.3935107735      -32.9377903755      -31.5164154834  TIP3      5708            0.0000000000
     42024      5908  TIP3      H2             12.6584111413      -31.6439560794      -32.2355021893  TIP3      5708            0.0000000000
     42025      5909  TIP3      OH2            13.6967370972      -28.9443857814      -33.0244041250  TIP3      5709            0.0000000000
     42026      5909  TIP3      H1             13.3289820287      -28.3401611193      -33.7064937488  TIP3      5709            0.0000000000
     42027      5909  TIP3      H2             14.6517966140      -28.8033670164      -33.1467331767  TIP3      5709            0.0000000000
     42028      5910  TIP3      OH2             4.3640771441      -32.4292023303      -32.2192184800  TIP3      5710            0.0000000000
     42029      5910  TIP3      H1              3.4722689859      -32.3669085308      -32.6247645743  TIP3      5710            0.0000000000
     42030      5910  TIP3      H2              4.8850676842      -32.6031232543      -33.0301558613  TIP3      5710            0.0000000000
     42031      5911  TIP3      OH2             6.7949042555      -37.4784216703      -36.5713335240  TIP3      5711            0.0000000000
     42032      5911  TIP3      H1              6.6275298554      -36.5077928296      -36.4497487605  TIP3      5711            0.0000000000
     42033      5911  TIP3      H2              5.8898862184      -37.7571703496      -36.7836343910  TIP3      5711            0.0000000000
     42034      5912  TIP3      OH2             8.1839250788      -33.1875811342      -32.4263797773  TIP3      5712            0.0000000000
     42035      5912  TIP3      H1              7.8732844240      -33.4069932353      -31.5320957357  TIP3      5712            0.0000000000
     42036      5912  TIP3      H2              7.4096429519      -33.4546133096      -32.9642280253  TIP3      5712            0.0000000000
     42037      5913  TIP3      OH2            11.1495393688      -34.2390357871      -33.3793228160  TIP3      5713            0.0000000000
     42038      5913  TIP3      H1             10.2097728309      -34.2863391474      -33.1429290046  TIP3      5713            0.0000000000
     42039      5913  TIP3      H2             11.5524157101      -34.8230273332      -32.7066277856  TIP3      5713            0.0000000000
     42040      5914  TIP3      OH2            12.8712571414      -35.1592536188      -31.2589907326  TIP3      5714            0.0000000000
     42041      5914  TIP3      H1             12.6800376561      -36.1324274248      -31.2783340872  TIP3      5714            0.0000000000
     42042      5914  TIP3      H2             12.6020244745      -34.9319993566      -30.3420473605  TIP3      5714            0.0000000000
     42043      5915  TIP3      OH2             2.1665205919      -34.3462888732      -31.9669059628  TIP3      5715            0.0000000000
     42044      5915  TIP3      H1              2.7598483795      -34.8712044507      -32.5135329993  TIP3      5715            0.0000000000
     42045      5915  TIP3      H2              2.0717840585      -34.8400289836      -31.1451743825  TIP3      5715            0.0000000000
     42046      5916  TIP3      OH2             6.8833171014      -37.5107540256      -33.7817706327  TIP3      5716            0.0000000000
     42047      5916  TIP3      H1              7.2965859936      -38.3689343640      -33.5757355276  TIP3      5716            0.0000000000
     42048      5916  TIP3      H2              6.9799861399      -37.4684324833      -34.7504438756  TIP3      5716            0.0000000000
     42049      5917  TIP3      OH2             7.6103437498      -36.7678575950      -31.2129931908  TIP3      5717            0.0000000000
     42050      5917  TIP3      H1              7.3839340012      -37.0102333111      -32.1318744313  TIP3      5717            0.0000000000
     42051      5917  TIP3      H2              7.0962594000      -35.9518170469      -31.0759149014  TIP3      5717            0.0000000000
     42052      5918  TIP3      OH2             7.0210131850      -19.9091991225      -48.0440116534  TIP3      5718            0.0000000000
     42053      5918  TIP3      H1              7.9862997454      -20.0850355477      -47.9995692878  TIP3      5718            0.0000000000
     42054      5918  TIP3      H2              6.9304464452      -19.7061701463      -48.9823554195  TIP3      5718            0.0000000000
     42055      5919  TIP3      OH2             0.8238974342      -24.9481823807      -48.3868482326  TIP3      5719            0.0000000000
     42056      5919  TIP3      H1              1.8085030396      -24.9939448554      -48.3496299923  TIP3      5719            0.0000000000
     42057      5919  TIP3      H2              0.5979086671      -25.4428252735      -49.1998627352  TIP3      5719            0.0000000000
     42058      5920  TIP3      OH2            -0.5945503451      -20.0113236861      -43.6658691375  TIP3      5720            0.0000000000
     42059      5920  TIP3      H1             -1.3133263429      -20.5688146236      -44.0483265123  TIP3      5720            0.0000000000
     42060      5920  TIP3      H2             -0.2690286263      -20.5989151491      -42.9471475136  TIP3      5720            0.0000000000
     42061      5921  TIP3      OH2             0.4705227357      -21.7065492890      -41.8132469270  TIP3      5721            0.0000000000
     42062      5921  TIP3      H1             -0.2744935425      -22.2827808368      -41.5628214703  TIP3      5721            0.0000000000
     42063      5921  TIP3      H2              0.9246420995      -21.6083641908      -40.9549794603  TIP3      5721            0.0000000000
     42064      5922  TIP3      OH2            17.7264837223      -20.9413158127      -39.2025612914  TIP3      5722            0.0000000000
     42065      5922  TIP3      H1             18.0066214202      -20.9789088362      -38.2727348903  TIP3      5722            0.0000000000
     42066      5922  TIP3      H2             18.5030904541      -20.5568806622      -39.6186777028  TIP3      5722            0.0000000000
     42067      5923  TIP3      OH2            17.3337801352      -21.2022696427      -36.3096635587  TIP3      5723            0.0000000000
     42068      5923  TIP3      H1             16.9126805951      -22.0458956393      -36.5994796670  TIP3      5723            0.0000000000
     42069      5923  TIP3      H2             17.5957094327      -21.4480402137      -35.4142145336  TIP3      5723            0.0000000000
     42070      5924  TIP3      OH2            17.0044740503      -27.1792979967      -46.0255857672  TIP3      5724            0.0000000000
     42071      5924  TIP3      H1             17.8380383018      -26.7002290083      -45.8303409158  TIP3      5724            0.0000000000
     42072      5924  TIP3      H2             16.9449736772      -27.7305488499      -45.2189088598  TIP3      5724            0.0000000000
     42073      5925  TIP3      OH2            17.3305466566      -28.8214695383      -43.6609066772  TIP3      5725            0.0000000000
     42074      5925  TIP3      H1             16.5626616639      -29.4199825676      -43.5063625970  TIP3      5725            0.0000000000
     42075      5925  TIP3      H2             17.6915167079      -28.7524069477      -42.7552309434  TIP3      5725            0.0000000000
     42076      5926  TIP3      OH2            17.2241507971      -26.3119843919      -39.3384942814  TIP3      5726            0.0000000000
     42077      5926  TIP3      H1             17.8850842277      -27.0331654134      -39.4290153159  TIP3      5726            0.0000000000
     42078      5926  TIP3      H2             17.6376247298      -25.5675870795      -39.8194247827  TIP3      5726            0.0000000000
     42079      5927  TIP3      OH2            15.9584459622      -23.5641885602      -36.8862305255  TIP3      5727            0.0000000000
     42080      5927  TIP3      H1             15.2953286917      -23.2328488827      -36.2598800348  TIP3      5727            0.0000000000
     42081      5927  TIP3      H2             15.3965451064      -23.8892390918      -37.6248321245  TIP3      5727            0.0000000000
     42082      5928  TIP3      OH2            18.0024873732      -29.1828315664      -47.8338346217  TIP3      5728            0.0000000000
     42083      5928  TIP3      H1             17.2173844065      -28.9260667368      -48.3532782754  TIP3      5728            0.0000000000
     42084      5928  TIP3      H2             17.9720089097      -28.4702234181      -47.1640874406  TIP3      5728            0.0000000000
     42085      5929  TIP3      OH2            15.8006285275      -32.0249558644      -48.4377048995  TIP3      5729            0.0000000000
     42086      5929  TIP3      H1             15.6120656681      -31.3392963094      -49.0951399042  TIP3      5729            0.0000000000
     42087      5929  TIP3      H2             15.9124443614      -32.7848839446      -49.0269602072  TIP3      5729            0.0000000000
     42088      5930  TIP3      OH2            15.4040564844      -30.5417411746      -43.0334767445  TIP3      5730            0.0000000000
     42089      5930  TIP3      H1             15.2021878828      -31.4372306474      -43.3443985908  TIP3      5730            0.0000000000
     42090      5930  TIP3      H2             15.0577526929      -30.5637210322      -42.1172708215  TIP3      5730            0.0000000000
     42091      5931  TIP3      OH2             0.1899097138      -28.2822035610      -39.1263365014  TIP3      5731            0.0000000000
     42092      5931  TIP3      H1              0.2114552967      -28.5538565787      -40.0652353254  TIP3      5731            0.0000000000
     42093      5931  TIP3      H2              1.0857463139      -28.6017517187      -38.8637006098  TIP3      5731            0.0000000000
     42094      5932  TIP3      OH2            16.4995687541      -28.7826835890      -33.9043992992  TIP3      5732            0.0000000000
     42095      5932  TIP3      H1             16.9211264397      -29.4603602370      -33.3282076117  TIP3      5732            0.0000000000
     42096      5932  TIP3      H2             17.0749945815      -28.0022302179      -33.8008897779  TIP3      5732            0.0000000000
     42097      5933  TIP3      OH2            17.3108289386      -30.9858286892      -32.5968403878  TIP3      5733            0.0000000000
     42098      5933  TIP3      H1             16.4692863886      -31.3247121514      -32.9925066810  TIP3      5733            0.0000000000
     42099      5933  TIP3      H2             17.9795326660      -31.5887891073      -32.9693595719  TIP3      5733            0.0000000000
     42100      5934  TIP3      OH2            15.4134653246      -34.5894969630      -49.8977430092  TIP3      5734            0.0000000000
     42101      5934  TIP3      H1             16.1693318685      -34.9936335865      -49.4134450699  TIP3      5734            0.0000000000
     42102      5934  TIP3      H2             14.7029065237      -35.2281598171      -49.7145817947  TIP3      5734            0.0000000000
     42103      5935  TIP3      OH2            14.9717707613      -32.7515345653      -44.9665338447  TIP3      5735            0.0000000000
     42104      5935  TIP3      H1             15.1977081035      -33.6755281114      -44.7070013335  TIP3      5735            0.0000000000
     42105      5935  TIP3      H2             15.8062428189      -32.5046588855      -45.3969086302  TIP3      5735            0.0000000000
     42106      5936  TIP3      OH2            15.8889528167      -32.4195351073      -39.2239806072  TIP3      5736            0.0000000000
     42107      5936  TIP3      H1             16.8572749828      -32.1834501252      -39.1750524194  TIP3      5736            0.0000000000
     42108      5936  TIP3      H2             15.6473103463      -32.3489771628      -38.2804108445  TIP3      5736            0.0000000000
     42109      5937  TIP3      OH2            15.8997328155      -31.5632563357      -36.7394749398  TIP3      5737            0.0000000000
     42110      5937  TIP3      H1             15.0264465227      -31.3827862441      -36.3557117630  TIP3      5737            0.0000000000
     42111      5937  TIP3      H2             16.2282844038      -30.6645221110      -36.9841024723  TIP3      5737            0.0000000000
     42112      5938  TIP3      OH2             0.1459100007      -33.0879934241      -33.5086901773  TIP3      5738            0.0000000000
     42113      5938  TIP3      H1              0.9232211710      -33.2809950401      -32.9396584698  TIP3      5738            0.0000000000
     42114      5938  TIP3      H2             -0.3974439014      -33.8781082482      -33.3125518439  TIP3      5738            0.0000000000
     42115      5939  TIP3      OH2            18.4186189291      -37.4150926656      -31.5042221187  TIP3      5739            0.0000000000
     42116      5939  TIP3      H1             19.2858104702      -37.4470481982      -31.9672687494  TIP3      5739            0.0000000000
     42117      5939  TIP3      H2             18.0543302324      -36.6649960788      -32.0112065195  TIP3      5739            0.0000000000
     42118      5940  TIP3      OH2            15.7105738328      -35.2925551362      -44.4872584213  TIP3      5740            0.0000000000
     42119      5940  TIP3      H1             16.0524468186      -35.8791474657      -43.7823593209  TIP3      5740            0.0000000000
     42120      5940  TIP3      H2             15.0581319232      -35.8768781293      -44.9255783160  TIP3      5740            0.0000000000
     42121      5941  TIP3      OH2             1.1101961754      -34.6732747778      -40.0347891925  TIP3      5741            0.0000000000
     42122      5941  TIP3      H1              1.5007677609      -35.5598243818      -39.9062849649  TIP3      5741            0.0000000000
     42123      5941  TIP3      H2              1.9366243691      -34.1602186222      -40.0293881411  TIP3      5741            0.0000000000
     42124      5942  TIP3      OH2            -0.5064128457      -31.7022206912      -39.2902829176  TIP3      5742            0.0000000000
     42125      5942  TIP3      H1              0.0771374172      -31.8052728160      -40.0778294009  TIP3      5742            0.0000000000
     42126      5942  TIP3      H2              0.1566855525      -31.3684527096      -38.6708120627  TIP3      5742            0.0000000000
     42127      5943  TIP3      OH2            17.4892067591      -35.1059959928      -33.0017797605  TIP3      5743            0.0000000000
     42128      5943  TIP3      H1             16.5893291732      -34.8077013961      -32.7652751762  TIP3      5743            0.0000000000
     42129      5943  TIP3      H2             17.3009194792      -35.6685899042      -33.7777573459  TIP3      5743            0.0000000000
     42130      5944  TIP3      OH2            17.6221229596      -35.4752725535      -48.4467163483  TIP3      5744            0.0000000000
     42131      5944  TIP3      H1             18.0875988633      -35.8989151392      -49.1875112829  TIP3      5744            0.0000000000
     42132      5944  TIP3      H2             18.2312350532      -34.7375103677      -48.2407364825  TIP3      5744            0.0000000000
     42133      5945  TIP3      OH2            -0.3418639001      -35.7539787936      -44.9255053499  TIP3      5745            0.0000000000
     42134      5945  TIP3      H1             -1.2418349674      -35.4107025562      -45.1025144908  TIP3      5745            0.0000000000
     42135      5945  TIP3      H2              0.1363418270      -35.2869427824      -45.6422668530  TIP3      5745            0.0000000000
     42136      5946  TIP3      OH2            14.5213899790      -20.7729238578      -43.2784198695  TIP3      5746            0.0000000000
     42137      5946  TIP3      H1             15.2526624387      -20.9172612384      -43.9145829214  TIP3      5746            0.0000000000
     42138      5946  TIP3      H2             14.9353204372      -20.2396278308      -42.5754797512  TIP3      5746            0.0000000000
     42139      5947  TIP3      OH2             0.0399539081      -36.6289406343      -37.0570617022  TIP3      5747            0.0000000000
     42140      5947  TIP3      H1             -0.5875984315      -36.5452691394      -36.3178634838  TIP3      5747            0.0000000000
     42141      5947  TIP3      H2             -0.3327066974      -35.9407901463      -37.6437604837  TIP3      5747            0.0000000000
     42142      5948  TIP3      OH2             2.0185141309      -24.0123357595      -32.6089996368  TIP3      5748            0.0000000000
     42143      5948  TIP3      H1              1.6002557648      -24.0131739621      -33.4795283495  TIP3      5748            0.0000000000
     42144      5948  TIP3      H2              1.3040225094      -24.3915451115      -32.0713222155  TIP3      5748            0.0000000000
     42145      5949  TIP3      OH2             5.0027145705      -22.4743732396      -36.3067035820  TIP3      5749            0.0000000000
     42146      5949  TIP3      H1              5.0146064119      -21.5450984935      -36.5998745741  TIP3      5749            0.0000000000
     42147      5949  TIP3      H2              5.9796722342      -22.6269018972      -36.3237221268  TIP3      5749            0.0000000000
     42148      5950  TIP3      OH2             9.1312951873      -21.3908399427      -33.7106504484  TIP3      5750            0.0000000000
     42149      5950  TIP3      H1              9.2977474371      -21.5704228115      -32.7730870874  TIP3      5750            0.0000000000
     42150      5950  TIP3      H2              9.9935203304      -21.0119950876      -33.9849952154  TIP3      5750            0.0000000000
     42151      5951  TIP3      OH2            11.3919275590      -19.8193401426      -34.3209802381  TIP3      5751            0.0000000000
     42152      5951  TIP3      H1             12.1255127710      -20.3397102234      -34.6983174006  TIP3      5751            0.0000000000
     42153      5951  TIP3      H2             11.7964442096      -19.5111672503      -33.4773999382  TIP3      5751            0.0000000000
     42154      5952  TIP3      OH2            16.8301869010      -36.7800955813      -35.2457395903  TIP3      5752            0.0000000000
     42155      5952  TIP3      H1             15.9820891758      -36.4816778154      -35.6006303944  TIP3      5752            0.0000000000
     42156      5952  TIP3      H2             16.6441956019      -37.7399266696      -35.1895888268  TIP3      5752            0.0000000000
     42157      5953  TIP3      OH2             2.3498067784      -19.4751169352      -36.5664699189  TIP3      5753            0.0000000000
     42158      5953  TIP3      H1              1.6520519803      -18.9265717496      -36.9778283868  TIP3      5753            0.0000000000
     42159      5953  TIP3      H2              2.2190183660      -19.2698055274      -35.6327922389  TIP3      5753            0.0000000000
     42160      5954  TIP3      OH2             4.8198632538      -19.9210189823      -37.6145334231  TIP3      5754            0.0000000000
     42161      5954  TIP3      H1              3.9193662893      -19.8003806853      -37.2269973140  TIP3      5754            0.0000000000
     42162      5954  TIP3      H2              4.7593810229      -19.3254189549      -38.3832843411  TIP3      5754            0.0000000000
     42163      5955  TIP3      OH2             9.2761492405      -20.3062403835      -38.2747481103  TIP3      5755            0.0000000000
     42164      5955  TIP3      H1              8.9694037094      -19.6158778956      -38.8737253479  TIP3      5755            0.0000000000
     42165      5955  TIP3      H2              9.6791760592      -19.7371658798      -37.5846972056  TIP3      5755            0.0000000000
     42166      5956  TIP3      OH2            11.4688482450      -21.5198228674      -36.8643965516  TIP3      5756            0.0000000000
     42167      5956  TIP3      H1             10.9411909788      -21.2546239317      -37.6388961803  TIP3      5756            0.0000000000
     42168      5956  TIP3      H2             12.2793354865      -21.0124058341      -37.0381820865  TIP3      5756            0.0000000000
     42169      5957  TIP3      OH2            14.3034098195      -20.0600883130      -37.2355119574  TIP3      5757            0.0000000000
     42170      5957  TIP3      H1             14.4698187364      -19.1233836471      -37.4415021325  TIP3      5757            0.0000000000
     42171      5957  TIP3      H2             14.5735153122      -20.4841576308      -38.0840674249  TIP3      5757            0.0000000000
     42172      5958  TIP3      OH2             1.9902491688      -21.0538661513      -39.5568876793  TIP3      5758            0.0000000000
     42173      5958  TIP3      H1              1.6827774825      -21.7000380400      -38.8963109890  TIP3      5758            0.0000000000
     42174      5958  TIP3      H2              2.8330996219      -21.4612051410      -39.8542783817  TIP3      5758            0.0000000000
     42175      5959  TIP3      OH2             3.9848558339      -22.2747706939      -40.8938339549  TIP3      5759            0.0000000000
     42176      5959  TIP3      H1              3.9908639957      -23.1988161799      -40.5548826702  TIP3      5759            0.0000000000
     42177      5959  TIP3      H2              4.8638251945      -21.9696963585      -40.5730219302  TIP3      5759            0.0000000000
     42178      5960  TIP3      OH2             6.3693056202      -22.0420678319      -39.8404854218  TIP3      5760            0.0000000000
     42179      5960  TIP3      H1              6.6946528083      -22.9396928178      -40.0211111845  TIP3      5760            0.0000000000
     42180      5960  TIP3      H2              6.4507358198      -22.0306137255      -38.8728012863  TIP3      5760            0.0000000000
     42181      5961  TIP3      OH2             9.9594066603      -35.6855127854      -41.0178948800  TIP3      5761            0.0000000000
     42182      5961  TIP3      H1              9.3696123766      -36.4640874798      -40.9305911787  TIP3      5761            0.0000000000
     42183      5961  TIP3      H2             10.5956592979      -36.0182267700      -41.6683552126  TIP3      5761            0.0000000000
     42184      5962  TIP3      OH2            14.7845035970      -37.1531655035      -40.8768917953  TIP3      5762            0.0000000000
     42185      5962  TIP3      H1             15.4574457479      -36.9787761309      -41.5656810820  TIP3      5762            0.0000000000
     42186      5962  TIP3      H2             13.9467970465      -36.8793161885      -41.3034328110  TIP3      5762            0.0000000000
     42187      5963  TIP3      OH2            17.1055541516      -36.5607122692      -42.5687305514  TIP3      5763            0.0000000000
     42188      5963  TIP3      H1             17.6790802290      -36.9005076573      -43.2770341015  TIP3      5763            0.0000000000
     42189      5963  TIP3      H2             17.5685878234      -35.7112736847      -42.3553533309  TIP3      5763            0.0000000000
     42190      5964  TIP3      OH2             2.2354498659      -37.1136366294      -42.9806795708  TIP3      5764            0.0000000000
     42191      5964  TIP3      H1              1.6193710279      -36.8029433730      -43.6680294843  TIP3      5764            0.0000000000
     42192      5964  TIP3      H2              2.2104534289      -38.0875767126      -43.1419557010  TIP3      5764            0.0000000000
     42193      5965  TIP3      OH2             1.3038538559      -37.1248626075      -46.7303243904  TIP3      5765            0.0000000000
     42194      5965  TIP3      H1              1.6370463009      -36.7279058129      -47.5587508160  TIP3      5765            0.0000000000
     42195      5965  TIP3      H2              0.3786612799      -36.8371649717      -46.7543717596  TIP3      5765            0.0000000000
     42196      5966  TIP3      OH2             6.8915941823      -37.1924797387      -43.3196478852  TIP3      5766            0.0000000000
     42197      5966  TIP3      H1              7.6593975438      -36.7604813697      -43.7366957272  TIP3      5766            0.0000000000
     42198      5966  TIP3      H2              7.1755975458      -37.1871904589      -42.3822957439  TIP3      5766            0.0000000000
     42199      5967  TIP3      OH2            12.2632667342      -36.8678094662      -42.0425202074  TIP3      5767            0.0000000000
     42200      5967  TIP3      H1             12.5301345683      -36.9835940429      -42.9637536938  TIP3      5767            0.0000000000
     42201      5967  TIP3      H2             12.1603579316      -37.8025343590      -41.7609172563  TIP3      5767            0.0000000000
     42202      5968  TIP3      OH2            13.8705946425      -36.5599219611      -45.9056159271  TIP3      5768            0.0000000000
     42203      5968  TIP3      H1             12.9504946405      -36.2279870842      -45.9853429683  TIP3      5768            0.0000000000
     42204      5968  TIP3      H2             13.7660496943      -37.5130775200      -46.0949012890  TIP3      5768            0.0000000000
     42205      5969  TIP3      OH2             1.1671824996      -21.6555185635      -46.1641894225  TIP3      5769            0.0000000000
     42206      5969  TIP3      H1              0.2963074811      -21.8975284176      -46.5317763659  TIP3      5769            0.0000000000
     42207      5969  TIP3      H2              1.2099758402      -20.7400209040      -46.5136527777  TIP3      5769            0.0000000000
     42208      5970  TIP3      OH2             2.5786628406      -36.2433153394      -48.9045204391  TIP3      5770            0.0000000000
     42209      5970  TIP3      H1              3.4082818106      -36.7372063712      -48.9876355716  TIP3      5770            0.0000000000
     42210      5970  TIP3      H2              2.8861575939      -35.3831143276      -48.5898698548  TIP3      5770            0.0000000000
     42211      5971  TIP3      OH2             7.7248361649      -35.4036327521      -46.3949447963  TIP3      5771            0.0000000000
     42212      5971  TIP3      H1              8.2412578402      -36.0039302461      -45.8309610767  TIP3      5771            0.0000000000
     42213      5971  TIP3      H2              7.9156322419      -34.5691631910      -45.9334270333  TIP3      5771            0.0000000000
     42214      5972  TIP3      OH2             9.6941825505      -20.5746964195      -48.2664755839  TIP3      5772            0.0000000000
     42215      5972  TIP3      H1             10.6550115954      -20.3197128277      -48.1823762122  TIP3      5772            0.0000000000
     42216      5972  TIP3      H2              9.7598159947      -21.0654020103      -49.1080466224  TIP3      5772            0.0000000000
     42217      5973  TIP3      OH2            16.3349865046      -21.2962136483      -45.0783115085  TIP3      5773            0.0000000000
     42218      5973  TIP3      H1             16.3177640252      -22.2050477316      -45.4596220808  TIP3      5773            0.0000000000
     42219      5973  TIP3      H2             16.0475684485      -20.7514760468      -45.8360903035  TIP3      5773            0.0000000000
     42220      5974  TIP3      OH2             1.7091917172      -37.4032414837      -33.0475352097  TIP3      5774            0.0000000000
     42221      5974  TIP3      H1              1.7346474947      -38.3709033112      -33.1671517336  TIP3      5774            0.0000000000
     42222      5974  TIP3      H2              2.5491747957      -37.2429507503      -32.5682777016  TIP3      5774            0.0000000000
     42223      5975  TIP3      OH2             4.2461029299      -37.1748076741      -31.8583381596  TIP3      5775            0.0000000000
     42224      5975  TIP3      H1              5.0298571487      -36.7667825125      -32.2590787936  TIP3      5775            0.0000000000
     42225      5975  TIP3      H2              4.3316244251      -38.1026877803      -32.1918345268  TIP3      5775            0.0000000000
     42226      5976  TIP3      OH2             2.8434547483      -20.7185978766      -48.7487548707  TIP3      5776            0.0000000000
     42227      5976  TIP3      H1              2.4220453112      -20.4352272859      -47.9301994262  TIP3      5776            0.0000000000
     42228      5976  TIP3      H2              3.4266733451      -21.4240598829      -48.4565722555  TIP3      5776            0.0000000000
     42229      5977  TIP3      OH2            12.2870772578      -37.7072248698      -31.6645466970  TIP3      5777            0.0000000000
     42230      5977  TIP3      H1             11.8838783016      -38.5623653966      -31.4361103003  TIP3      5777            0.0000000000
     42231      5977  TIP3      H2             12.9734917866      -38.0059512026      -32.2773899444  TIP3      5777            0.0000000000
     42232      5978  TIP3      OH2            16.3019961894      -21.7626558983      -33.4398502539  TIP3      5778            0.0000000000
     42233      5978  TIP3      H1             15.7746762975      -22.5431898294      -33.1419133251  TIP3      5778            0.0000000000
     42234      5978  TIP3      H2             15.5340642565      -21.1999722015      -33.6924443328  TIP3      5778            0.0000000000
     42235      5979  TIP3      OH2            30.2791737773      -28.4392651175      -43.1106273838  TIP3      5779            0.0000000000
     42236      5979  TIP3      H1             30.2110951973      -27.5362855019      -42.7483123448  TIP3      5779            0.0000000000
     42237      5979  TIP3      H2             29.5811386421      -28.4043553863      -43.7854969723  TIP3      5779            0.0000000000
     42238      5980  TIP3      OH2            28.9656648415      -29.4479989190      -39.7435389826  TIP3      5780            0.0000000000
     42239      5980  TIP3      H1             29.1315276551      -29.9974936567      -38.9448586626  TIP3      5780            0.0000000000
     42240      5980  TIP3      H2             28.4215650355      -30.0262885571      -40.3160430630  TIP3      5780            0.0000000000
     42241      5981  TIP3      OH2            21.2838006208      -29.3072604699      -38.3229447809  TIP3      5781            0.0000000000
     42242      5981  TIP3      H1             21.1573236930      -30.0584565444      -37.7189161599  TIP3      5781            0.0000000000
     42243      5981  TIP3      H2             21.9925661193      -28.8309973241      -37.8607802819  TIP3      5781            0.0000000000
     42244      5982  TIP3      OH2            32.6683302594      -26.2636237555      -41.1012172684  TIP3      5782            0.0000000000
     42245      5982  TIP3      H1             32.7499517770      -27.0166400065      -40.5031590510  TIP3      5782            0.0000000000
     42246      5982  TIP3      H2             32.5995896703      -25.5233574868      -40.4788364053  TIP3      5782            0.0000000000
     42247      5983  TIP3      OH2            22.2869281809      -24.7920209286      -40.0967518145  TIP3      5783            0.0000000000
     42248      5983  TIP3      H1             21.9461666041      -25.7039766537      -40.2108892893  TIP3      5783            0.0000000000
     42249      5983  TIP3      H2             23.2340636095      -25.0191965203      -40.1680636850  TIP3      5783            0.0000000000
     42250      5984  TIP3      OH2            19.0545725912      -31.5673020648      -44.2068178991  TIP3      5784            0.0000000000
     42251      5984  TIP3      H1             18.5689145987      -30.8415842410      -43.7867603629  TIP3      5784            0.0000000000
     42252      5984  TIP3      H2             18.5398178369      -31.6762293907      -45.0248933507  TIP3      5784            0.0000000000
     42253      5985  TIP3      OH2            19.4750410902      -29.0364090927      -41.8442787211  TIP3      5785            0.0000000000
     42254      5985  TIP3      H1             19.9251064065      -29.8992511016      -41.6837258455  TIP3      5785            0.0000000000
     42255      5985  TIP3      H2             20.0626639276      -28.5880479913      -42.4589040596  TIP3      5785            0.0000000000
     42256      5986  TIP3      OH2            29.9315366156      -20.9158578921      -41.3288460549  TIP3      5786            0.0000000000
     42257      5986  TIP3      H1             30.6068321580      -21.4078606699      -41.8552074097  TIP3      5786            0.0000000000
     42258      5986  TIP3      H2             29.6109340160      -21.6662924519      -40.8084479564  TIP3      5786            0.0000000000
     42259      5987  TIP3      OH2            27.2491673796      -26.2967484749      -38.8437311039  TIP3      5787            0.0000000000
     42260      5987  TIP3      H1             27.4517198507      -26.9708347228      -39.5081467777  TIP3      5787            0.0000000000
     42261      5987  TIP3      H2             28.1275009377      -26.2094447067      -38.3984493239  TIP3      5787            0.0000000000
     42262      5988  TIP3      OH2            35.9974477333      -34.8454780228      -39.0355107781  TIP3      5788            0.0000000000
     42263      5988  TIP3      H1             36.1849006937      -34.1469609963      -38.3708858062  TIP3      5788            0.0000000000
     42264      5988  TIP3      H2             36.5029970287      -34.5084765374      -39.7870726814  TIP3      5788            0.0000000000
     42265      5989  TIP3      OH2            30.7966707704      -32.2845003302      -38.7316652196  TIP3      5789            0.0000000000
     42266      5989  TIP3      H1             31.3237086762      -33.1012949234      -38.7209187310  TIP3      5789            0.0000000000
     42267      5989  TIP3      H2             30.5892666948      -32.2376439373      -39.6836305263  TIP3      5789            0.0000000000
     42268      5990  TIP3      OH2            23.8873882042      -34.2331355484      -42.0627245771  TIP3      5790            0.0000000000
     42269      5990  TIP3      H1             23.9732248813      -33.4142893838      -42.6064285053  TIP3      5790            0.0000000000
     42270      5990  TIP3      H2             23.4240331688      -34.8273046450      -42.6996888805  TIP3      5790            0.0000000000
     42271      5991  TIP3      OH2            31.5590514264      -33.9938709062      -43.4724269628  TIP3      5791            0.0000000000
     42272      5991  TIP3      H1             32.0248953205      -34.1978132061      -42.6216296964  TIP3      5791            0.0000000000
     42273      5991  TIP3      H2             32.1728364556      -33.3855690850      -43.8906313698  TIP3      5791            0.0000000000
     42274      5992  TIP3      OH2            20.3829787819      -31.5463446498      -40.8983826682  TIP3      5792            0.0000000000
     42275      5992  TIP3      H1             21.1191675739      -31.8451006784      -40.3366847280  TIP3      5792            0.0000000000
     42276      5992  TIP3      H2             20.5435661812      -32.0335678947      -41.7205309407  TIP3      5792            0.0000000000
     42277      5993  TIP3      OH2            25.3173514479      -30.1938095221      -41.4798808504  TIP3      5793            0.0000000000
     42278      5993  TIP3      H1             26.1042708097      -30.6787595084      -41.1841880900  TIP3      5793            0.0000000000
     42279      5993  TIP3      H2             25.0420956735      -30.7427340877      -42.2418227766  TIP3      5793            0.0000000000
     42280      5994  TIP3      OH2            36.5665476830      -33.7188264175      -36.6066032465  TIP3      5794            0.0000000000
     42281      5994  TIP3      H1             35.8888396574      -33.0161732627      -36.5076623293  TIP3      5794            0.0000000000
     42282      5994  TIP3      H2             36.6480949062      -34.0025948847      -35.6881243641  TIP3      5794            0.0000000000
     42283      5995  TIP3      OH2            22.8621048571      -35.0756524536      -37.8168527652  TIP3      5795            0.0000000000
     42284      5995  TIP3      H1             22.4901135662      -34.4861472941      -38.5142863956  TIP3      5795            0.0000000000
     42285      5995  TIP3      H2             22.1362832217      -35.0992280338      -37.1526876529  TIP3      5795            0.0000000000
     42286      5996  TIP3      OH2            29.5965356454      -25.8893228927      -44.2299718671  TIP3      5796            0.0000000000
     42287      5996  TIP3      H1             29.6042314184      -25.8511641720      -45.2017399232  TIP3      5796            0.0000000000
     42288      5996  TIP3      H2             29.2948684116      -24.9803278437      -44.0220000159  TIP3      5796            0.0000000000
     42289      5997  TIP3      OH2            25.0579757649      -27.5113538621      -37.9485330307  TIP3      5797            0.0000000000
     42290      5997  TIP3      H1             24.4988004198      -26.7415486390      -37.6649545452  TIP3      5797            0.0000000000
     42291      5997  TIP3      H2             25.8140847373      -27.0287984256      -38.3470925878  TIP3      5797            0.0000000000
     42292      5998  TIP3      OH2            33.1096210706      -34.4295762308      -41.3467890164  TIP3      5798            0.0000000000
     42293      5998  TIP3      H1             32.6169453004      -34.8704007573      -40.6368329452  TIP3      5798            0.0000000000
     42294      5998  TIP3      H2             34.0226264862      -34.5095363295      -41.0366593130  TIP3      5798            0.0000000000
     42295      5999  TIP3      OH2            22.4742475516      -33.2322430165      -39.8812975238  TIP3      5799            0.0000000000
     42296      5999  TIP3      H1             23.0813341817      -32.5780171092      -39.4618076671  TIP3      5799            0.0000000000
     42297      5999  TIP3      H2             22.9827527932      -33.5029229193      -40.6712249906  TIP3      5799            0.0000000000
     42298      6000  TIP3      OH2            23.7008198854      -25.4606109441      -36.9464888125  TIP3      5800            0.0000000000
     42299      6000  TIP3      H1             23.6282669646      -24.6019133115      -37.3879882719  TIP3      5800            0.0000000000
     42300      6000  TIP3      H2             22.8363423018      -25.5058809885      -36.4719856918  TIP3      5800            0.0000000000
     42301      6001  TIP3      OH2            19.5350614707      -26.1980808970      -45.9043423441  TIP3      5801            0.0000000000
     42302      6001  TIP3      H1             19.4033543098      -25.6479289656      -46.7038767168  TIP3      5801            0.0000000000
     42303      6001  TIP3      H2             19.5747063319      -25.5240948667      -45.1950910205  TIP3      5801            0.0000000000
     42304      6002  TIP3      OH2            33.1211308854      -24.1644745698      -39.2271009451  TIP3      5802            0.0000000000
     42305      6002  TIP3      H1             32.2072920185      -24.0115610990      -38.9003219118  TIP3      5802            0.0000000000
     42306      6002  TIP3      H2             33.3138692512      -23.2726001270      -39.5515473492  TIP3      5802            0.0000000000
     42307      6003  TIP3      OH2            33.7655691538      -36.3204387626      -37.5207218296  TIP3      5803            0.0000000000
     42308      6003  TIP3      H1             33.1432378405      -36.0082367993      -38.2084470549  TIP3      5803            0.0000000000
     42309      6003  TIP3      H2             34.4671573396      -36.6367517875      -38.1120414328  TIP3      5803            0.0000000000
     42310      6004  TIP3      OH2            26.6851128274      -37.3318540833      -40.7776724531  TIP3      5804            0.0000000000
     42311      6004  TIP3      H1             26.6814917827      -38.2261880975      -40.3869014384  TIP3      5804            0.0000000000
     42312      6004  TIP3      H2             26.1366636635      -36.8495914995      -40.1267614758  TIP3      5804            0.0000000000
     42313      6005  TIP3      OH2            31.4109149910      -22.5661545151      -42.6648887077  TIP3      5805            0.0000000000
     42314      6005  TIP3      H1             31.6209144318      -23.4239097976      -43.1017576790  TIP3      5805            0.0000000000
     42315      6005  TIP3      H2             32.2865163356      -22.1113290263      -42.7443551681  TIP3      5805            0.0000000000
     42316      6006  TIP3      OH2            32.3812534483      -24.6617267492      -43.9616285390  TIP3      5806            0.0000000000
     42317      6006  TIP3      H1             32.3606287674      -25.4161102648      -44.5776506051  TIP3      5806            0.0000000000
     42318      6006  TIP3      H2             32.8227673892      -25.0432332853      -43.1850128057  TIP3      5806            0.0000000000
     42319      6007  TIP3      OH2            34.0626619970      -26.0419002621      -35.2749689900  TIP3      5807            0.0000000000
     42320      6007  TIP3      H1             34.1612674545      -26.7155020960      -35.9958438106  TIP3      5807            0.0000000000
     42321      6007  TIP3      H2             34.2102828464      -25.2179723433      -35.7721075080  TIP3      5807            0.0000000000
     42322      6008  TIP3      OH2            28.7956910726      -28.9731559047      -45.7029315964  TIP3      5808            0.0000000000
     42323      6008  TIP3      H1             28.3460238281      -28.1093693625      -45.8338449052  TIP3      5808            0.0000000000
     42324      6008  TIP3      H2             29.5494360725      -28.9187024576      -46.3104661444  TIP3      5808            0.0000000000
     42325      6009  TIP3      OH2            29.3493475788      -30.4945203276      -48.7436019716  TIP3      5809            0.0000000000
     42326      6009  TIP3      H1             30.1387304288      -30.1303034294      -48.2811516561  TIP3      5809            0.0000000000
     42327      6009  TIP3      H2             29.6427139022      -31.3994917785      -48.9645407689  TIP3      5809            0.0000000000
     42328      6010  TIP3      OH2            35.7836304882      -29.5913015107      -37.5585996798  TIP3      5810            0.0000000000
     42329      6010  TIP3      H1             35.1675044032      -28.8287781793      -37.6398802191  TIP3      5810            0.0000000000
     42330      6010  TIP3      H2             36.4656918834      -29.3758834815      -38.2521245513  TIP3      5810            0.0000000000
     42331      6011  TIP3      OH2            32.3816966649      -29.0276713149      -44.6764609242  TIP3      5811            0.0000000000
     42332      6011  TIP3      H1             31.6712488581      -28.7591961297      -44.0394505147  TIP3      5811            0.0000000000
     42333      6011  TIP3      H2             32.9890638725      -29.5205776667      -44.0803121917  TIP3      5811            0.0000000000
     42334      6012  TIP3      OH2            32.1511091934      -30.5695874635      -35.4990621283  TIP3      5812            0.0000000000
     42335      6012  TIP3      H1             31.8666943617      -29.6756199542      -35.2247324576  TIP3      5812            0.0000000000
     42336      6012  TIP3      H2             31.6230559744      -30.6226138464      -36.3124722335  TIP3      5812            0.0000000000
     42337      6013  TIP3      OH2            23.9534928705      -28.1967151686      -42.7818355747  TIP3      5813            0.0000000000
     42338      6013  TIP3      H1             23.5319475878      -28.4151941046      -43.6484092232  TIP3      5813            0.0000000000
     42339      6013  TIP3      H2             24.4614351127      -29.0071541375      -42.5944655582  TIP3      5813            0.0000000000
     42340      6014  TIP3      OH2            25.2470451936      -24.9882884032      -40.1473577450  TIP3      5814            0.0000000000
     42341      6014  TIP3      H1             25.3859363824      -25.1477591559      -41.0902756432  TIP3      5814            0.0000000000
     42342      6014  TIP3      H2             26.0326897772      -25.4120054313      -39.7320369090  TIP3      5814            0.0000000000
     42343      6015  TIP3      OH2            24.0431276134      -29.5876941635      -39.1034381574  TIP3      5815            0.0000000000
     42344      6015  TIP3      H1             24.4234545995      -29.6029856092      -40.0106169052  TIP3      5815            0.0000000000
     42345      6015  TIP3      H2             24.5127445443      -28.8241996415      -38.6998373105  TIP3      5815            0.0000000000
     42346      6016  TIP3      OH2            30.6743227978      -23.7708751165      -38.4483803674  TIP3      5816            0.0000000000
     42347      6016  TIP3      H1             30.5833019190      -22.9978909102      -37.8620507411  TIP3      5816            0.0000000000
     42348      6016  TIP3      H2             30.2870861238      -24.4740134821      -37.8852583678  TIP3      5816            0.0000000000
     42349      6017  TIP3      OH2            25.3953356261      -25.1306845871      -34.9548813358  TIP3      5817            0.0000000000
     42350      6017  TIP3      H1             24.6840508015      -24.6435831023      -34.4799679185  TIP3      5817            0.0000000000
     42351      6017  TIP3      H2             24.9032303121      -25.4116413405      -35.7647614236  TIP3      5817            0.0000000000
     42352      6018  TIP3      OH2            31.1860662215      -29.5564570490      -47.0847483835  TIP3      5818            0.0000000000
     42353      6018  TIP3      H1             31.5604419462      -29.4853683132      -46.1761773442  TIP3      5818            0.0000000000
     42354      6018  TIP3      H2             31.7815627892      -28.9373801556      -47.5743822432  TIP3      5818            0.0000000000
     42355      6019  TIP3      OH2            22.2661315655      -29.0535113920      -35.5666148149  TIP3      5819            0.0000000000
     42356      6019  TIP3      H1             22.5199142826      -28.2383166243      -35.1291734610  TIP3      5819            0.0000000000
     42357      6019  TIP3      H2             21.5104671682      -29.3416876009      -35.0229116435  TIP3      5819            0.0000000000
     42358      6020  TIP3      OH2            28.8742063211      -23.0721114879      -44.1894353829  TIP3      5820            0.0000000000
     42359      6020  TIP3      H1             29.3061221755      -22.7355268529      -43.3938788115  TIP3      5820            0.0000000000
     42360      6020  TIP3      H2             28.4759819704      -22.2776718722      -44.5713470441  TIP3      5820            0.0000000000
     42361      6021  TIP3      OH2            23.5739060816      -23.5054489754      -33.7320123092  TIP3      5821            0.0000000000
     42362      6021  TIP3      H1             23.4336588170      -23.1237816591      -34.6260383841  TIP3      5821            0.0000000000
     42363      6021  TIP3      H2             22.6495808557      -23.7500683034      -33.5095760755  TIP3      5821            0.0000000000
     42364      6022  TIP3      OH2            34.6002816241      -37.0891776389      -47.6554700421  TIP3      5822            0.0000000000
     42365      6022  TIP3      H1             34.1732458833      -36.8876956938      -46.8063590230  TIP3      5822            0.0000000000
     42366      6022  TIP3      H2             35.1498881852      -36.2976121057      -47.7825154901  TIP3      5822            0.0000000000
     42367      6023  TIP3      OH2            22.5809585810      -29.1036603634      -45.0066114516  TIP3      5823            0.0000000000
     42368      6023  TIP3      H1             22.2895907911      -28.4556315204      -45.6765517202  TIP3      5823            0.0000000000
     42369      6023  TIP3      H2             22.2284430079      -29.9289618898      -45.3678723702  TIP3      5823            0.0000000000
     42370      6024  TIP3      OH2            36.1988208804      -23.3138498315      -48.3962346232  TIP3      5824            0.0000000000
     42371      6024  TIP3      H1             36.6206791245      -22.4284840908      -48.3371596340  TIP3      5824            0.0000000000
     42372      6024  TIP3      H2             36.9426663689      -23.9193236816      -48.2729747151  TIP3      5824            0.0000000000
     42373      6025  TIP3      OH2            19.2130267815      -26.6961796124      -36.1157428277  TIP3      5825            0.0000000000
     42374      6025  TIP3      H1             18.8372538466      -26.8163585115      -36.9995082851  TIP3      5825            0.0000000000
     42375      6025  TIP3      H2             19.4789572136      -27.6209253525      -35.9037386557  TIP3      5825            0.0000000000
     42376      6026  TIP3      OH2            18.9882439339      -24.0190654751      -39.9945800003  TIP3      5826            0.0000000000
     42377      6026  TIP3      H1             19.9263995093      -24.2013832718      -39.8220789068  TIP3      5826            0.0000000000
     42378      6026  TIP3      H2             18.7863193689      -23.3730287354      -39.3074391563  TIP3      5826            0.0000000000
     42379      6027  TIP3      OH2            36.9684549541      -23.2495123512      -33.8796987377  TIP3      5827            0.0000000000
     42380      6027  TIP3      H1             37.0493766793      -24.1898688424      -34.0563842309  TIP3      5827            0.0000000000
     42381      6027  TIP3      H2             36.0663818784      -23.2288849574      -33.4984052576  TIP3      5827            0.0000000000
     42382      6028  TIP3      OH2            27.8680606484      -23.9968610749      -34.8231668321  TIP3      5828            0.0000000000
     42383      6028  TIP3      H1             27.9150333061      -23.2621889063      -34.1803358817  TIP3      5828            0.0000000000
     42384      6028  TIP3      H2             26.9167490357      -24.2547132319      -34.8261148669  TIP3      5828            0.0000000000
     42385      6029  TIP3      OH2            28.4312143601      -20.1817519317      -45.4249957959  TIP3      5829            0.0000000000
     42386      6029  TIP3      H1             28.5645787136      -19.7887214413      -46.3070723019  TIP3      5829            0.0000000000
     42387      6029  TIP3      H2             28.3433060558      -19.3644482717      -44.8875894344  TIP3      5829            0.0000000000
     42388      6030  TIP3      OH2            22.0347613120      -21.4674106141      -43.2285750411  TIP3      5830            0.0000000000
     42389      6030  TIP3      H1             22.3569686239      -21.7473625977      -42.3443771727  TIP3      5830            0.0000000000
     42390      6030  TIP3      H2             21.1463313620      -21.8809239248      -43.2455817523  TIP3      5830            0.0000000000
     42391      6031  TIP3      OH2            31.3192786574      -20.3407371708      -48.2545215605  TIP3      5831            0.0000000000
     42392      6031  TIP3      H1             31.5541023597      -21.2879572703      -48.4203285535  TIP3      5831            0.0000000000
     42393      6031  TIP3      H2             31.3530906359      -20.3112762652      -47.2804676415  TIP3      5831            0.0000000000
     42394      6032  TIP3      OH2            31.0581552137      -21.0116453080      -45.4383725934  TIP3      5832            0.0000000000
     42395      6032  TIP3      H1             30.1003654281      -20.9520376504      -45.2337842094  TIP3      5832            0.0000000000
     42396      6032  TIP3      H2             31.3795379337      -21.6664996467      -44.7887652477  TIP3      5832            0.0000000000
     42397      6033  TIP3      OH2            33.6936751250      -31.8693049878      -33.4127371364  TIP3      5833            0.0000000000
     42398      6033  TIP3      H1             33.3389235439      -31.5235111198      -34.2488917665  TIP3      5833            0.0000000000
     42399      6033  TIP3      H2             34.3955208712      -32.4762856969      -33.7097605387  TIP3      5833            0.0000000000
     42400      6034  TIP3      OH2            21.4722327977      -25.4992610071      -35.4659656891  TIP3      5834            0.0000000000
     42401      6034  TIP3      H1             21.4212121353      -25.8225088473      -34.5285172218  TIP3      5834            0.0000000000
     42402      6034  TIP3      H2             20.5844522389      -25.7654472593      -35.7847556892  TIP3      5834            0.0000000000
     42403      6035  TIP3      OH2            24.3518576063      -36.2792397692      -39.6134490665  TIP3      5835            0.0000000000
     42404      6035  TIP3      H1             23.5799023665      -36.0498685387      -40.1661358937  TIP3      5835            0.0000000000
     42405      6035  TIP3      H2             24.1480259010      -35.7259699983      -38.8261835755  TIP3      5835            0.0000000000
     42406      6036  TIP3      OH2            28.1217095429      -36.7951188429      -35.3522892732  TIP3      5836            0.0000000000
     42407      6036  TIP3      H1             28.7203114797      -37.5555009561      -35.4922044362  TIP3      5836            0.0000000000
     42408      6036  TIP3      H2             27.5494897780      -36.9161555566      -36.1399797311  TIP3      5836            0.0000000000
     42409      6037  TIP3      OH2            31.7713140789      -33.5345357294      -35.5328980155  TIP3      5837            0.0000000000
     42410      6037  TIP3      H1             31.2400470312      -33.7912824329      -34.7477905140  TIP3      5837            0.0000000000
     42411      6037  TIP3      H2             31.9916078280      -32.6140875850      -35.3080534878  TIP3      5837            0.0000000000
     42412      6038  TIP3      OH2            32.7393944804      -28.2244510253      -48.7821796814  TIP3      5838            0.0000000000
     42413      6038  TIP3      H1             32.2767193092      -28.1564854667      -49.6533595332  TIP3      5838            0.0000000000
     42414      6038  TIP3      H2             33.6555699668      -28.2334785288      -49.1376642381  TIP3      5838            0.0000000000
     42415      6039  TIP3      OH2            28.0923298219      -34.7217018405      -48.6060608935  TIP3      5839            0.0000000000
     42416      6039  TIP3      H1             27.6616701658      -35.1189457868      -47.8209587040  TIP3      5839            0.0000000000
     42417      6039  TIP3      H2             27.6358356681      -35.1373520022      -49.3517920357  TIP3      5839            0.0000000000
     42418      6040  TIP3      OH2            24.1003975346      -31.9888279413      -38.1296623945  TIP3      5840            0.0000000000
     42419      6040  TIP3      H1             23.2962139476      -31.9934724941      -37.5792009259  TIP3      5840            0.0000000000
     42420      6040  TIP3      H2             24.1142618423      -31.0404727683      -38.4187677136  TIP3      5840            0.0000000000
     42421      6041  TIP3      OH2            24.0367792347      -31.9308005236      -43.4164802204  TIP3      5841            0.0000000000
     42422      6041  TIP3      H1             23.0734419260      -32.0977603641      -43.4964339695  TIP3      5841            0.0000000000
     42423      6041  TIP3      H2             24.3735481019      -32.1267982104      -44.3248111746  TIP3      5841            0.0000000000
     42424      6042  TIP3      OH2            29.9158335623      -31.3355227495      -44.5823759955  TIP3      5842            0.0000000000
     42425      6042  TIP3      H1             29.5084976748      -30.5189355465      -44.9480952742  TIP3      5842            0.0000000000
     42426      6042  TIP3      H2             30.4895692659      -31.6250338143      -45.3166034934  TIP3      5842            0.0000000000
     42427      6043  TIP3      OH2            28.5344340420      -30.9884726337      -33.2656674919  TIP3      5843            0.0000000000
     42428      6043  TIP3      H1             28.0698803262      -31.8231301742      -33.0150872425  TIP3      5843            0.0000000000
     42429      6043  TIP3      H2             29.3057654958      -31.0673048356      -32.6744288746  TIP3      5843            0.0000000000
     42430      6044  TIP3      OH2            30.7413447592      -31.8600473851      -41.7130540427  TIP3      5844            0.0000000000
     42431      6044  TIP3      H1             30.4854571587      -31.0035752543      -42.1188709530  TIP3      5844            0.0000000000
     42432      6044  TIP3      H2             30.7465087752      -32.4246227370      -42.5119783316  TIP3      5844            0.0000000000
     42433      6045  TIP3      OH2            21.4900850793      -31.9388193924      -36.9116643771  TIP3      5845            0.0000000000
     42434      6045  TIP3      H1             22.0312109356      -31.5405600555      -36.2109221677  TIP3      5845            0.0000000000
     42435      6045  TIP3      H2             21.1981570848      -32.7861718535      -36.5217478874  TIP3      5845            0.0000000000
     42436      6046  TIP3      OH2            24.8033094590      -34.2404443245      -49.6132650508  TIP3      5846            0.0000000000
     42437      6046  TIP3      H1             24.4160525339      -34.3756537336      -48.7286100715  TIP3      5846            0.0000000000
     42438      6046  TIP3      H2             24.0884210108      -33.7600830983      -50.0769906803  TIP3      5846            0.0000000000
     42439      6047  TIP3      OH2            18.5895742168      -34.2873859889      -42.5136621444  TIP3      5847            0.0000000000
     42440      6047  TIP3      H1             19.3425488917      -34.5080657232      -41.9502640284  TIP3      5847            0.0000000000
     42441      6047  TIP3      H2             18.8579760270      -34.5996973759      -43.3927148230  TIP3      5847            0.0000000000
     42442      6048  TIP3      OH2            19.5247617497      -33.9670977310      -46.8591587934  TIP3      5848            0.0000000000
     42443      6048  TIP3      H1             20.2951913275      -33.5194976660      -47.2636973046  TIP3      5848            0.0000000000
     42444      6048  TIP3      H2             18.9378291125      -33.2014364931      -46.6947540638  TIP3      5848            0.0000000000
     42445      6049  TIP3      OH2            29.7379918936      -30.3853007370      -37.2638698571  TIP3      5849            0.0000000000
     42446      6049  TIP3      H1             30.2862268550      -31.0092468726      -37.7952458941  TIP3      5849            0.0000000000
     42447      6049  TIP3      H2             29.1552115813      -31.0309374922      -36.7986908764  TIP3      5849            0.0000000000
     42448      6050  TIP3      OH2            26.7882090782      -34.4489826358      -42.2974739110  TIP3      5850            0.0000000000
     42449      6050  TIP3      H1             25.8588123738      -34.7370759747      -42.2492915699  TIP3      5850            0.0000000000
     42450      6050  TIP3      H2             27.0897639907      -34.6418551533      -41.3899174881  TIP3      5850            0.0000000000
     42451      6051  TIP3      OH2            21.3870707506      -32.6751554859      -43.4086529845  TIP3      5851            0.0000000000
     42452      6051  TIP3      H1             20.5139422338      -32.4141887331      -43.7891742661  TIP3      5851            0.0000000000
     42453      6051  TIP3      H2             21.5468296905      -33.5574060676      -43.7904160477  TIP3      5851            0.0000000000
     42454      6052  TIP3      OH2            25.0444628806      -32.6086230329      -45.7537603745  TIP3      5852            0.0000000000
     42455      6052  TIP3      H1             26.0158468789      -32.5544824003      -45.6442370347  TIP3      5852            0.0000000000
     42456      6052  TIP3      H2             24.8168548737      -32.0145794537      -46.5075768960  TIP3      5852            0.0000000000
     42457      6053  TIP3      OH2            31.3204217449      -35.3311818112      -39.2002906858  TIP3      5853            0.0000000000
     42458      6053  TIP3      H1             30.6949694073      -35.1892075415      -38.4640002536  TIP3      5853            0.0000000000
     42459      6053  TIP3      H2             30.6837805247      -35.7229787163      -39.8253973722  TIP3      5853            0.0000000000
     42460      6054  TIP3      OH2            23.8578212844      -31.2686772047      -47.7315045267  TIP3      5854            0.0000000000
     42461      6054  TIP3      H1             23.0089112613      -31.5724805853      -48.0918251116  TIP3      5854            0.0000000000
     42462      6054  TIP3      H2             24.4233764282      -31.2063200609      -48.5237805028  TIP3      5854            0.0000000000
     42463      6055  TIP3      OH2            34.0517227854      -19.8122278334      -32.5013514297  TIP3      5855            0.0000000000
     42464      6055  TIP3      H1             34.4459783172      -19.3375227463      -33.2661868863  TIP3      5855            0.0000000000
     42465      6055  TIP3      H2             34.7136139690      -19.6334455435      -31.8127132879  TIP3      5855            0.0000000000
     42466      6056  TIP3      OH2            21.5912746788      -26.9292426324      -33.0749392058  TIP3      5856            0.0000000000
     42467      6056  TIP3      H1             22.3556877555      -26.7643252190      -32.4920170786  TIP3      5856            0.0000000000
     42468      6056  TIP3      H2             20.9538910645      -27.3102312258      -32.4545816571  TIP3      5856            0.0000000000
     42469      6057  TIP3      OH2            27.9565030653      -31.7260026926      -40.6847521574  TIP3      5857            0.0000000000
     42470      6057  TIP3      H1             28.6465537064      -32.2233100748      -41.1427717313  TIP3      5857            0.0000000000
     42471      6057  TIP3      H2             27.7739362824      -32.3272170853      -39.9594662534  TIP3      5857            0.0000000000
     42472      6058  TIP3      OH2            22.5513297523      -35.3406447639      -44.0531794567  TIP3      5858            0.0000000000
     42473      6058  TIP3      H1             22.0500404877      -36.0555311032      -43.5890674976  TIP3      5858            0.0000000000
     42474      6058  TIP3      H2             22.9979761203      -35.8176700356      -44.7694362684  TIP3      5858            0.0000000000
     42475      6059  TIP3      OH2            26.4079646503      -33.3504610532      -38.1406065299  TIP3      5859            0.0000000000
     42476      6059  TIP3      H1             25.6311599226      -32.7490818484      -38.0463268889  TIP3      5859            0.0000000000
     42477      6059  TIP3      H2             27.1117885921      -32.8408822476      -37.7211598944  TIP3      5859            0.0000000000
     42478      6060  TIP3      OH2            27.0160758640      -26.8168602793      -46.1499921988  TIP3      5860            0.0000000000
     42479      6060  TIP3      H1             26.3323225276      -27.4555157379      -46.4468131124  TIP3      5860            0.0000000000
     42480      6060  TIP3      H2             26.6704832109      -26.6537707416      -45.2395006465  TIP3      5860            0.0000000000
     42481      6061  TIP3      OH2            34.1592795685      -27.4772942532      -37.4256991360  TIP3      5861            0.0000000000
     42482      6061  TIP3      H1             34.6952861979      -26.9976417788      -38.0979687666  TIP3      5861            0.0000000000
     42483      6061  TIP3      H2             33.3204597745      -27.6351163973      -37.9009241706  TIP3      5861            0.0000000000
     42484      6062  TIP3      OH2            30.5645481036      -34.3830723061      -47.6213632279  TIP3      5862            0.0000000000
     42485      6062  TIP3      H1             29.7240885940      -34.0754157204      -48.0343424410  TIP3      5862            0.0000000000
     42486      6062  TIP3      H2             31.0507020635      -33.5434400803      -47.4887891541  TIP3      5862            0.0000000000
     42487      6063  TIP3      OH2            28.0740900413      -26.7311026925      -35.1568327198  TIP3      5863            0.0000000000
     42488      6063  TIP3      H1             28.0274275173      -27.0546710386      -34.2530603003  TIP3      5863            0.0000000000
     42489      6063  TIP3      H2             28.0145226754      -25.7709834545      -35.0021345361  TIP3      5863            0.0000000000
     42490      6064  TIP3      OH2            31.7098413472      -32.1989349810      -46.5768901261  TIP3      5864            0.0000000000
     42491      6064  TIP3      H1             32.5652163735      -32.3433810864      -46.1228287831  TIP3      5864            0.0000000000
     42492      6064  TIP3      H2             31.8379162942      -31.3259124535      -46.9779745222  TIP3      5864            0.0000000000
     42493      6065  TIP3      OH2            22.3470991660      -27.5075398794      -40.4857007674  TIP3      5865            0.0000000000
     42494      6065  TIP3      H1             22.9991832211      -27.6481617302      -41.1995351179  TIP3      5865            0.0000000000
     42495      6065  TIP3      H2             22.4038959936      -28.3228886103      -39.9591129487  TIP3      5865            0.0000000000
     42496      6066  TIP3      OH2            29.2745767508      -25.5531591603      -47.1728175172  TIP3      5866            0.0000000000
     42497      6066  TIP3      H1             28.8916776129      -24.6540061794      -47.0899374772  TIP3      5866            0.0000000000
     42498      6066  TIP3      H2             28.4688935051      -26.0939396235      -47.0693601714  TIP3      5866            0.0000000000
     42499      6067  TIP3      OH2            19.2678185221      -29.4351992666      -35.3170063786  TIP3      5867            0.0000000000
     42500      6067  TIP3      H1             19.0265199055      -29.9784838327      -34.5438049307  TIP3      5867            0.0000000000
     42501      6067  TIP3      H2             18.6544773462      -29.7773057590      -36.0027063868  TIP3      5867            0.0000000000
     42502      6068  TIP3      OH2            26.1174586941      -29.6353293627      -33.3526720434  TIP3      5868            0.0000000000
     42503      6068  TIP3      H1             25.6909801511      -30.1752701710      -34.0282810895  TIP3      5868            0.0000000000
     42504      6068  TIP3      H2             27.0411263533      -29.9827941356      -33.3657099121  TIP3      5868            0.0000000000
     42505      6069  TIP3      OH2            31.0573616261      -24.3569328855      -34.9487673865  TIP3      5869            0.0000000000
     42506      6069  TIP3      H1             30.1721773009      -24.2146506193      -35.3234812993  TIP3      5869            0.0000000000
     42507      6069  TIP3      H2             30.9385929247      -23.9023854927      -34.0919473685  TIP3      5869            0.0000000000
     42508      6070  TIP3      OH2            36.2992028250      -31.9725555808      -46.5454674121  TIP3      5870            0.0000000000
     42509      6070  TIP3      H1             35.8080074684      -32.2905690430      -47.3402461965  TIP3      5870            0.0000000000
     42510      6070  TIP3      H2             36.4288216745      -31.0485119090      -46.8440971684  TIP3      5870            0.0000000000
     42511      6071  TIP3      OH2            36.4675920422      -26.4471758927      -34.1456525751  TIP3      5871            0.0000000000
     42512      6071  TIP3      H1             35.6265185079      -26.1160487828      -34.5258993394  TIP3      5871            0.0000000000
     42513      6071  TIP3      H2             37.0012848709      -26.5717825169      -34.9610236150  TIP3      5871            0.0000000000
     42514      6072  TIP3      OH2            34.8596734308      -23.6796944479      -45.9975363880  TIP3      5872            0.0000000000
     42515      6072  TIP3      H1             33.9932686355      -24.0924818769      -46.1400216544  TIP3      5872            0.0000000000
     42516      6072  TIP3      H2             35.2540972475      -23.7022234419      -46.8817978816  TIP3      5872            0.0000000000
     42517      6073  TIP3      OH2            32.2207436551      -28.3751311492      -39.2631492543  TIP3      5873            0.0000000000
     42518      6073  TIP3      H1             31.2817899225      -28.3496503257      -39.4913660719  TIP3      5873            0.0000000000
     42519      6073  TIP3      H2             32.5050693007      -29.1693811732      -39.7719110488  TIP3      5873            0.0000000000
     42520      6074  TIP3      OH2            24.4194326979      -24.1830291935      -43.0320612148  TIP3      5874            0.0000000000
     42521      6074  TIP3      H1             24.7208826018      -23.2956008806      -43.3340347417  TIP3      5874            0.0000000000
     42522      6074  TIP3      H2             23.4689673609      -24.0994746953      -43.1765435700  TIP3      5874            0.0000000000
     42523      6075  TIP3      OH2            20.5439968230      -29.4354023633      -48.9347678215  TIP3      5875            0.0000000000
     42524      6075  TIP3      H1             21.0528981208      -28.7947123448      -48.3932023505  TIP3      5875            0.0000000000
     42525      6075  TIP3      H2             19.6476061745      -29.3338178488      -48.5523159659  TIP3      5875            0.0000000000
     42526      6076  TIP3      OH2            25.9552147950      -26.4508118230      -43.5683323338  TIP3      5876            0.0000000000
     42527      6076  TIP3      H1             25.3802699932      -25.6564012785      -43.4601138408  TIP3      5876            0.0000000000
     42528      6076  TIP3      H2             25.4714986781      -27.1210232322      -43.0421227669  TIP3      5876            0.0000000000
     42529      6077  TIP3      OH2            26.4521211126      -22.3578091434      -36.7702517469  TIP3      5877            0.0000000000
     42530      6077  TIP3      H1             27.0651269595      -21.6655214759      -37.0698254548  TIP3      5877            0.0000000000
     42531      6077  TIP3      H2             27.0348841383      -22.8397953902      -36.1439466801  TIP3      5877            0.0000000000
     42532      6078  TIP3      OH2            24.6882270282      -21.6678292649      -44.1243838564  TIP3      5878            0.0000000000
     42533      6078  TIP3      H1             23.7623747945      -21.4405554591      -43.9059230446  TIP3      5878            0.0000000000
     42534      6078  TIP3      H2             25.1351011148      -20.8432674680      -43.8399371384  TIP3      5878            0.0000000000
     42535      6079  TIP3      OH2            29.5651572400      -26.4603101561      -37.4729719183  TIP3      5879            0.0000000000
     42536      6079  TIP3      H1             29.0575100987      -26.7377847375      -36.6779586241  TIP3      5879            0.0000000000
     42537      6079  TIP3      H2             30.0621180908      -27.2714142402      -37.6512300196  TIP3      5879            0.0000000000
     42538      6080  TIP3      OH2            32.2479904182      -25.1137554335      -48.5310631440  TIP3      5880            0.0000000000
     42539      6080  TIP3      H1             32.6296915634      -25.4578055029      -47.7018084917  TIP3      5880            0.0000000000
     42540      6080  TIP3      H2             31.3869333449      -25.5592242872      -48.4944109260  TIP3      5880            0.0000000000
     42541      6081  TIP3      OH2            32.6781570168      -21.9015259854      -35.1419673515  TIP3      5881            0.0000000000
     42542      6081  TIP3      H1             31.8128293290      -22.3317474927      -35.2643208716  TIP3      5881            0.0000000000
     42543      6081  TIP3      H2             32.7691920457      -21.3403466779      -35.9426644644  TIP3      5881            0.0000000000
     42544      6082  TIP3      OH2            37.0548651684      -20.7696132002      -48.4782116997  TIP3      5882            0.0000000000
     42545      6082  TIP3      H1             37.7800716634      -20.1300623086      -48.4431702230  TIP3      5882            0.0000000000
     42546      6082  TIP3      H2             36.3349601069      -20.3216979817      -47.9799013859  TIP3      5882            0.0000000000
     42547      6083  TIP3      OH2            21.0126691140      -34.7488574397      -35.9071885431  TIP3      5883            0.0000000000
     42548      6083  TIP3      H1             20.1109489126      -34.4985550782      -36.1337065525  TIP3      5883            0.0000000000
     42549      6083  TIP3      H2             20.9004454443      -35.5794637175      -35.4269885734  TIP3      5883            0.0000000000
     42550      6084  TIP3      OH2            33.2164523272      -26.6183517275      -46.3257703529  TIP3      5884            0.0000000000
     42551      6084  TIP3      H1             32.9247841494      -27.5313683055      -46.2007285819  TIP3      5884            0.0000000000
     42552      6084  TIP3      H2             34.1835175937      -26.7428747833      -46.3259276207  TIP3      5884            0.0000000000
     42553      6085  TIP3      OH2            20.5553168654      -22.6988301107      -37.4123304561  TIP3      5885            0.0000000000
     42554      6085  TIP3      H1             21.1952530326      -23.4169796283      -37.3222910072  TIP3      5885            0.0000000000
     42555      6085  TIP3      H2             20.6111660181      -22.3020938470      -36.5342085408  TIP3      5885            0.0000000000
     42556      6086  TIP3      OH2            24.9349393006      -24.7488864657      -47.4635316775  TIP3      5886            0.0000000000
     42557      6086  TIP3      H1             25.7818615786      -25.0666448984      -47.0980297594  TIP3      5886            0.0000000000
     42558      6086  TIP3      H2             25.0080791714      -23.7886150355      -47.2329172188  TIP3      5886            0.0000000000
     42559      6087  TIP3      OH2            21.5549112249      -27.4692531154      -47.2550061115  TIP3      5887            0.0000000000
     42560      6087  TIP3      H1             20.8359869788      -26.9910755152      -46.7768695905  TIP3      5887            0.0000000000
     42561      6087  TIP3      H2             22.1099864347      -26.7262793314      -47.5538878330  TIP3      5887            0.0000000000
     42562      6088  TIP3      OH2            29.3747801271      -34.8307949852      -36.6672930404  TIP3      5888            0.0000000000
     42563      6088  TIP3      H1             30.2288546356      -34.6551628208      -36.2392733278  TIP3      5888            0.0000000000
     42564      6088  TIP3      H2             28.9507822260      -35.4293010543      -36.0198168436  TIP3      5888            0.0000000000
     42565      6089  TIP3      OH2            30.1287127897      -35.4508443628      -45.2343867464  TIP3      5889            0.0000000000
     42566      6089  TIP3      H1             30.1830527283      -34.9214058874      -46.0553848341  TIP3      5889            0.0000000000
     42567      6089  TIP3      H2             30.7464238926      -34.9688998548      -44.6383813517  TIP3      5889            0.0000000000
     42568      6090  TIP3      OH2            28.0299349784      -23.0453112956      -47.2422620676  TIP3      5890            0.0000000000
     42569      6090  TIP3      H1             27.3622637895      -22.9274432575      -46.5510791064  TIP3      5890            0.0000000000
     42570      6090  TIP3      H2             28.3024397204      -22.1189620289      -47.3548177690  TIP3      5890            0.0000000000
     42571      6091  TIP3      OH2            27.6604078772      -33.0752600910      -44.7528811585  TIP3      5891            0.0000000000
     42572      6091  TIP3      H1             28.5335173281      -32.6496533171      -44.7088142462  TIP3      5891            0.0000000000
     42573      6091  TIP3      H2             27.4806112326      -33.3191145388      -43.8204334581  TIP3      5891            0.0000000000
     42574      6092  TIP3      OH2            28.3300708498      -32.0790961700      -35.7374456152  TIP3      5892            0.0000000000
     42575      6092  TIP3      H1             28.5422962171      -31.7658759163      -34.8312511757  TIP3      5892            0.0000000000
     42576      6092  TIP3      H2             28.6680189171      -32.9896378892      -35.7957463972  TIP3      5892            0.0000000000
     42577      6093  TIP3      OH2            28.0418030476      -36.3833302850      -44.0296701278  TIP3      5893            0.0000000000
     42578      6093  TIP3      H1             27.9133429369      -35.6702822636      -43.3826165193  TIP3      5893            0.0000000000
     42579      6093  TIP3      H2             28.8968743235      -36.1115497216      -44.4383888324  TIP3      5893            0.0000000000
     42580      6094  TIP3      OH2            25.2950031847      -22.1886291248      -46.7344309413  TIP3      5894            0.0000000000
     42581      6094  TIP3      H1             25.5861834089      -21.3427699937      -47.1431475146  TIP3      5894            0.0000000000
     42582      6094  TIP3      H2             25.0077605844      -21.8984395409      -45.8435549889  TIP3      5894            0.0000000000
     42583      6095  TIP3      OH2            23.7616738556      -34.5880321789      -47.0482407741  TIP3      5895            0.0000000000
     42584      6095  TIP3      H1             23.9242099179      -33.9202009278      -46.3492403848  TIP3      5895            0.0000000000
     42585      6095  TIP3      H2             24.5665928475      -35.1123991753      -46.9206691842  TIP3      5895            0.0000000000
     42586      6096  TIP3      OH2            34.2084536716      -34.4212708507      -34.9934734919  TIP3      5896            0.0000000000
     42587      6096  TIP3      H1             33.3124859559      -34.0410091008      -35.0210315546  TIP3      5896            0.0000000000
     42588      6096  TIP3      H2             34.2001547186      -34.9164723813      -35.8300091858  TIP3      5896            0.0000000000
     42589      6097  TIP3      OH2            32.8720897668      -30.6230978312      -40.6933943670  TIP3      5897            0.0000000000
     42590      6097  TIP3      H1             32.0757696619      -31.1352030462      -40.9331210334  TIP3      5897            0.0000000000
     42591      6097  TIP3      H2             33.3889973809      -31.3276236546      -40.2424143251  TIP3      5897            0.0000000000
     42592      6098  TIP3      OH2            22.3215901585      -25.0139440857      -48.0675017510  TIP3      5898            0.0000000000
     42593      6098  TIP3      H1             23.2351184796      -24.8323845976      -47.7356093819  TIP3      5898            0.0000000000
     42594      6098  TIP3      H2             22.5071113832      -25.1168276182      -49.0179359096  TIP3      5898            0.0000000000
     42595      6099  TIP3      OH2            20.7179913825      -32.0892041157      -48.4834391949  TIP3      5899            0.0000000000
     42596      6099  TIP3      H1             20.8542862077      -31.1235392909      -48.5769950133  TIP3      5899            0.0000000000
     42597      6099  TIP3      H2             20.0336664206      -32.2469095881      -49.1574699926  TIP3      5899            0.0000000000
     42598      6100  TIP3      OH2            34.1878740060      -21.5281404870      -39.2228213043  TIP3      5900            0.0000000000
     42599      6100  TIP3      H1             33.9797349024      -20.7972050052      -39.8491801361  TIP3      5900            0.0000000000
     42600      6100  TIP3      H2             35.1522186373      -21.4230524593      -39.1304921656  TIP3      5900            0.0000000000
     42601      6101  TIP3      OH2            21.5411909314      -36.7742329900      -40.3430263411  TIP3      5901            0.0000000000
     42602      6101  TIP3      H1             21.2831302180      -36.9588570695      -41.2696360147  TIP3      5901            0.0000000000
     42603      6101  TIP3      H2             21.3769597069      -37.6771282767      -39.9965023006  TIP3      5901            0.0000000000
     42604      6102  TIP3      OH2            20.0628799517      -23.4994356718      -44.1184135238  TIP3      5902            0.0000000000
     42605      6102  TIP3      H1             19.2769463239      -22.9409450138      -44.0939979083  TIP3      5902            0.0000000000
     42606      6102  TIP3      H2             20.4369552521      -23.1737686833      -44.9564396739  TIP3      5902            0.0000000000
     42607      6103  TIP3      OH2            19.6155212158      -20.7176477411      -33.1449979138  TIP3      5903            0.0000000000
     42608      6103  TIP3      H1             20.5531835993      -20.8840195999      -32.9633003026  TIP3      5903            0.0000000000
     42609      6103  TIP3      H2             19.2589185681      -21.6304367895      -33.1527292466  TIP3      5903            0.0000000000
     42610      6104  TIP3      OH2            24.2796687056      -21.8891220233      -31.5043942397  TIP3      5904            0.0000000000
     42611      6104  TIP3      H1             25.1260181522      -22.2205347905      -31.1679224357  TIP3      5904            0.0000000000
     42612      6104  TIP3      H2             24.2426430767      -22.3171478042      -32.3777111755  TIP3      5904            0.0000000000
     42613      6105  TIP3      OH2            28.4516407903      -22.5753882257      -50.1209820708  TIP3      5905            0.0000000000
     42614      6105  TIP3      H1             27.6127281585      -22.9851021767      -49.8681728279  TIP3      5905            0.0000000000
     42615      6105  TIP3      H2             29.0719085448      -23.1088478198      -49.6004971770  TIP3      5905            0.0000000000
     42616      6106  TIP3      OH2            30.5465796120      -23.1653997494      -32.4806057107  TIP3      5906            0.0000000000
     42617      6106  TIP3      H1             30.1975555059      -24.0400872649      -32.1710386092  TIP3      5906            0.0000000000
     42618      6106  TIP3      H2             31.4279128195      -23.1871870606      -32.0582833171  TIP3      5906            0.0000000000
     42619      6107  TIP3      OH2            32.1337572069      -22.5880374414      -49.4269027275  TIP3      5907            0.0000000000
     42620      6107  TIP3      H1             32.1639875027      -23.5186413714      -49.1135715007  TIP3      5907            0.0000000000
     42621      6107  TIP3      H2             33.0347001828      -22.4570046569      -49.7759967328  TIP3      5907            0.0000000000
     42622      6108  TIP3      OH2            19.1596532740      -27.2263869379      -31.8496826884  TIP3      5908            0.0000000000
     42623      6108  TIP3      H1             18.9896712652      -28.1609582707      -32.0580185686  TIP3      5908            0.0000000000
     42624      6108  TIP3      H2             18.7899585072      -26.7617237442      -32.6426711272  TIP3      5908            0.0000000000
     42625      6109  TIP3      OH2            24.3750210716      -27.3874443406      -49.4580288671  TIP3      5909            0.0000000000
     42626      6109  TIP3      H1             24.1045715632      -27.5081129014      -48.5389709989  TIP3      5909            0.0000000000
     42627      6109  TIP3      H2             25.1163222703      -26.7661841227      -49.3348871045  TIP3      5909            0.0000000000
     42628      6110  TIP3      OH2            26.0093546510      -26.9641641244      -33.0129842949  TIP3      5910            0.0000000000
     42629      6110  TIP3      H1             25.8657861277      -26.4500669467      -33.8387954415  TIP3      5910            0.0000000000
     42630      6110  TIP3      H2             25.8722601436      -27.9003113126      -33.2930867235  TIP3      5910            0.0000000000
     42631      6111  TIP3      OH2            31.7097825279      -27.2871971119      -34.9147277242  TIP3      5911            0.0000000000
     42632      6111  TIP3      H1             32.6130278865      -26.9095156807      -34.8144170630  TIP3      5911            0.0000000000
     42633      6111  TIP3      H2             31.2136065212      -26.4423693639      -34.8960839098  TIP3      5911            0.0000000000
     42634      6112  TIP3      OH2            20.8119443657      -29.9293694756      -32.3700829445  TIP3      5912            0.0000000000
     42635      6112  TIP3      H1             21.3680332012      -30.7124107078      -32.2481819445  TIP3      5912            0.0000000000
     42636      6112  TIP3      H2             21.1507247626      -29.3324459905      -31.6744216939  TIP3      5912            0.0000000000
     42637      6113  TIP3      OH2            25.1663390548      -28.6854737898      -47.1267722593  TIP3      5913            0.0000000000
     42638      6113  TIP3      H1             24.4076405730      -29.1509855386      -46.7503799779  TIP3      5913            0.0000000000
     42639      6113  TIP3      H2             25.5194238499      -29.3551499590      -47.7575044130  TIP3      5913            0.0000000000
     42640      6114  TIP3      OH2            24.0775737525      -30.9119641994      -35.6478261071  TIP3      5914            0.0000000000
     42641      6114  TIP3      H1             23.4534738614      -30.1759793566      -35.4888189688  TIP3      5914            0.0000000000
     42642      6114  TIP3      H2             24.7822181214      -30.4082304342      -36.1140646038  TIP3      5914            0.0000000000
     42643      6115  TIP3      OH2            26.4556292941      -30.4055487657      -49.0547176527  TIP3      5915            0.0000000000
     42644      6115  TIP3      H1             26.6863196704      -30.6954521337      -49.9461151749  TIP3      5915            0.0000000000
     42645      6115  TIP3      H2             27.3374804252      -30.3926794141      -48.6294162783  TIP3      5915            0.0000000000
     42646      6116  TIP3      OH2            29.5409665620      -27.8935265231      -31.8004317965  TIP3      5916            0.0000000000
     42647      6116  TIP3      H1             30.3570809524      -28.3130143964      -32.1271153039  TIP3      5916            0.0000000000
     42648      6116  TIP3      H2             29.0556419339      -28.6702555934      -31.4783788499  TIP3      5916            0.0000000000
     42649      6117  TIP3      OH2            35.0517935117      -28.4652379780       49.8950891966  TIP3      5917            0.0000000000
     42650      6117  TIP3      H1             35.4642386348      -29.2589271748       49.5258450424  TIP3      5917            0.0000000000
     42651      6117  TIP3      H2             35.7841423973      -27.8141313976       49.7806561852  TIP3      5917            0.0000000000
     42652      6118  TIP3      OH2            24.9975387505      -33.1084725706      -34.3745843965  TIP3      5918            0.0000000000
     42653      6118  TIP3      H1             25.0827357567      -33.7631019689      -35.0970357416  TIP3      5918            0.0000000000
     42654      6118  TIP3      H2             24.9176308248      -32.2781651530      -34.8975607156  TIP3      5918            0.0000000000
     42655      6119  TIP3      OH2            25.1704030454      -34.9554219151      -36.4346050350  TIP3      5919            0.0000000000
     42656      6119  TIP3      H1             25.7578957350      -34.4884295032      -37.0678806103  TIP3      5919            0.0000000000
     42657      6119  TIP3      H2             24.3062391572      -34.8350467726      -36.8827630666  TIP3      5919            0.0000000000
     42658      6120  TIP3      OH2            26.3257099398      -29.5124565106      -36.4884589144  TIP3      5920            0.0000000000
     42659      6120  TIP3      H1             27.2843361868      -29.3776521576      -36.5655536061  TIP3      5920            0.0000000000
     42660      6120  TIP3      H2             25.9691885268      -28.7256708629      -36.9466210780  TIP3      5920            0.0000000000
     42661      6121  TIP3      OH2            31.0704674832      -32.0614846356      -31.6483312898  TIP3      5921            0.0000000000
     42662      6121  TIP3      H1             31.2598205453      -33.0008299296      -31.7519949862  TIP3      5921            0.0000000000
     42663      6121  TIP3      H2             31.8512037258      -31.6655600322      -32.0789807935  TIP3      5921            0.0000000000
     42664      6122  TIP3      OH2            32.3467160921      -28.7593378609      -32.7161886039  TIP3      5922            0.0000000000
     42665      6122  TIP3      H1             32.0886432658      -28.2998627060      -33.5460575407  TIP3      5922            0.0000000000
     42666      6122  TIP3      H2             33.2628946118      -29.0287168908      -32.9545065348  TIP3      5922            0.0000000000
     42667      6123  TIP3      OH2            23.2124125345      -32.3317458256      -32.2026136800  TIP3      5923            0.0000000000
     42668      6123  TIP3      H1             22.4809127743      -32.9779454416      -32.3266131833  TIP3      5923            0.0000000000
     42669      6123  TIP3      H2             23.8125023946      -32.5870659934      -32.9273024937  TIP3      5923            0.0000000000
     42670      6124  TIP3      OH2            26.0349642297      -37.4252630188      -36.9294490566  TIP3      5924            0.0000000000
     42671      6124  TIP3      H1             25.8260884968      -36.5074666350      -36.6326159899  TIP3      5924            0.0000000000
     42672      6124  TIP3      H2             25.1193800896      -37.7226795680      -36.9713606647  TIP3      5924            0.0000000000
     42673      6125  TIP3      OH2            27.2759304924      -33.3238561378      -32.6216596414  TIP3      5925            0.0000000000
     42674      6125  TIP3      H1             26.8311655513      -33.5391227904      -31.7790851636  TIP3      5925            0.0000000000
     42675      6125  TIP3      H2             26.5441597466      -33.4985636454      -33.2433240018  TIP3      5925            0.0000000000
     42676      6126  TIP3      OH2            30.1144307698      -34.2401097132      -33.4467128902  TIP3      5926            0.0000000000
     42677      6126  TIP3      H1             29.1594499900      -34.2838814288      -33.2589075425  TIP3      5926            0.0000000000
     42678      6126  TIP3      H2             30.4661052623      -34.8479073908      -32.7645337268  TIP3      5926            0.0000000000
     42679      6127  TIP3      OH2            31.6577529114      -35.2285558734      -31.2810314028  TIP3      5927            0.0000000000
     42680      6127  TIP3      H1             31.5196711973      -36.2105517952      -31.2728614609  TIP3      5927            0.0000000000
     42681      6127  TIP3      H2             31.3138675445      -34.9938016581      -30.3870211529  TIP3      5927            0.0000000000
     42682      6128  TIP3      OH2            21.1626019631      -34.1005936155      -32.0872051309  TIP3      5928            0.0000000000
     42683      6128  TIP3      H1             21.0243543591      -34.8305707315      -32.7088245274  TIP3      5928            0.0000000000
     42684      6128  TIP3      H2             20.9652867463      -34.5408865090      -31.2257445640  TIP3      5928            0.0000000000
     42685      6129  TIP3      OH2            25.7232886104      -37.4928702194      -33.8517694754  TIP3      5929            0.0000000000
     42686      6129  TIP3      H1             25.6988912014      -38.4582907338      -33.6777136670  TIP3      5929            0.0000000000
     42687      6129  TIP3      H2             26.5011362686      -37.3682781603      -34.4273059865  TIP3      5929            0.0000000000
     42688      6130  TIP3      OH2            26.5877535962      -36.5194844742      -31.3094014315  TIP3      5930            0.0000000000
     42689      6130  TIP3      H1             26.3775612810      -36.8613726025      -32.2022330637  TIP3      5930            0.0000000000
     42690      6130  TIP3      H2             25.9445502358      -35.7897741255      -31.2194229668  TIP3      5930            0.0000000000
     42691      6131  TIP3      OH2            25.7210628391      -19.8191400050      -47.9023757595  TIP3      5931            0.0000000000
     42692      6131  TIP3      H1             26.6827727103      -19.7081689223      -47.8660683978  TIP3      5931            0.0000000000
     42693      6131  TIP3      H2             25.4626379521      -19.2501343585      -48.6397817375  TIP3      5931            0.0000000000
     42694      6132  TIP3      OH2            19.6020517664      -24.9933346103      -48.3862361080  TIP3      5932            0.0000000000
     42695      6132  TIP3      H1             20.5806987965      -24.9978590867      -48.2709957043  TIP3      5932            0.0000000000
     42696      6132  TIP3      H2             19.4855333882      -25.5237187170      -49.1955671938  TIP3      5932            0.0000000000
     42697      6133  TIP3      OH2            18.3093048845      -20.0075740848      -43.7921043975  TIP3      5933            0.0000000000
     42698      6133  TIP3      H1             17.5585713560      -20.5460611688      -44.1282715566  TIP3      5933            0.0000000000
     42699      6133  TIP3      H2             18.6321129538      -20.5595702295      -43.0496435125  TIP3      5933            0.0000000000
     42700      6134  TIP3      OH2            19.1781447827      -21.6791169556      -41.7973219423  TIP3      5934            0.0000000000
     42701      6134  TIP3      H1             18.5751873646      -22.3937115049      -41.5038881968  TIP3      5934            0.0000000000
     42702      6134  TIP3      H2             19.8010097378      -21.6291974517      -41.0434327254  TIP3      5934            0.0000000000
     42703      6135  TIP3      OH2            37.1907040456      -21.1232961496      -38.7029493713  TIP3      5935            0.0000000000
     42704      6135  TIP3      H1             37.1354439722      -21.0079084338      -37.7393988859  TIP3      5935            0.0000000000
     42705      6135  TIP3      H2             37.1847808088      -20.1888125715      -38.9617131038  TIP3      5935            0.0000000000
     42706      6136  TIP3      OH2            36.1732583879      -21.3035215555      -35.8136183885  TIP3      5936            0.0000000000
     42707      6136  TIP3      H1             35.7119987250      -22.0656918010      -36.2189349002  TIP3      5936            0.0000000000
     42708      6136  TIP3      H2             36.5952082656      -21.7459638126      -35.0493038726  TIP3      5936            0.0000000000
     42709      6137  TIP3      OH2            34.7881960808      -25.7028088251      -31.0103750980  TIP3      5937            0.0000000000
     42710      6137  TIP3      H1             33.9007691187      -25.5584251712      -30.6211275622  TIP3      5937            0.0000000000
     42711      6137  TIP3      H2             35.1532656947      -24.8066742095      -30.9645610588  TIP3      5937            0.0000000000
     42712      6138  TIP3      OH2            36.0098724530      -27.2346568889      -46.0438456865  TIP3      5938            0.0000000000
     42713      6138  TIP3      H1             36.8462143093      -26.7694237617      -45.9328338052  TIP3      5938            0.0000000000
     42714      6138  TIP3      H2             36.0569260236      -27.9226683943      -45.3496794090  TIP3      5938            0.0000000000
     42715      6139  TIP3      OH2            36.2818372034      -29.1934109515      -43.9946989930  TIP3      5939            0.0000000000
     42716      6139  TIP3      H1             35.3354300739      -29.4566014436      -43.9284732623  TIP3      5939            0.0000000000
     42717      6139  TIP3      H2             36.5722043462      -29.3551537781      -43.0793659544  TIP3      5939            0.0000000000
     42718      6140  TIP3      OH2            36.1393461978      -26.4562110743      -38.8719231699  TIP3      5940            0.0000000000
     42719      6140  TIP3      H1             36.9718029876      -26.7704178695      -39.2759021843  TIP3      5940            0.0000000000
     42720      6140  TIP3      H2             36.1997701601      -25.5173946275      -39.1342106285  TIP3      5940            0.0000000000
     42721      6141  TIP3      OH2            34.7320858545      -23.5784587974      -36.7018858952  TIP3      5941            0.0000000000
     42722      6141  TIP3      H1             33.9426412430      -23.1670004040      -36.3139357964  TIP3      5941            0.0000000000
     42723      6141  TIP3      H2             34.4449394987      -23.7179886234      -37.6260694093  TIP3      5941            0.0000000000
     42724      6142  TIP3      OH2            36.5893798854      -29.1322225308      -47.9522017180  TIP3      5942            0.0000000000
     42725      6142  TIP3      H1             35.8568983541      -28.8903576078      -48.5396046918  TIP3      5942            0.0000000000
     42726      6142  TIP3      H2             36.5694566766      -28.3547385723      -47.3627559865  TIP3      5942            0.0000000000
     42727      6143  TIP3      OH2            35.0440299633      -32.0525708331      -48.7978105268  TIP3      5943            0.0000000000
     42728      6143  TIP3      H1             34.4771298840      -31.6099721108      -49.4627271988  TIP3      5943            0.0000000000
     42729      6143  TIP3      H2             34.9750309033      -32.9789614548      -49.0912121724  TIP3      5943            0.0000000000
     42730      6144  TIP3      OH2            34.0828852371      -30.4933523042      -43.2074386892  TIP3      5944            0.0000000000
     42731      6144  TIP3      H1             34.1998989529      -31.4315756768      -43.4376857932  TIP3      5944            0.0000000000
     42732      6144  TIP3      H2             33.8777816161      -30.5101981516      -42.2494119135  TIP3      5944            0.0000000000
     42733      6145  TIP3      OH2            19.1154972655      -28.2277234528      -39.2275251314  TIP3      5945            0.0000000000
     42734      6145  TIP3      H1             19.2318519212      -28.5024584257      -40.1701027113  TIP3      5945            0.0000000000
     42735      6145  TIP3      H2             20.0173060641      -28.4332115010      -38.8831578675  TIP3      5945            0.0000000000
     42736      6146  TIP3      OH2            34.9983435631      -28.7117374598      -33.5654968496  TIP3      5946            0.0000000000
     42737      6146  TIP3      H1             35.6669978474      -29.3952067226      -33.8175348151  TIP3      5946            0.0000000000
     42738      6146  TIP3      H2             35.4751024648      -27.8810812472      -33.7851744144  TIP3      5946            0.0000000000
     42739      6147  TIP3      OH2            36.4733966955      -30.8318118749      -33.6288477228  TIP3      5947            0.0000000000
     42740      6147  TIP3      H1             35.6916990124      -30.9062037954      -33.0449280016  TIP3      5947            0.0000000000
     42741      6147  TIP3      H2             36.9039385565      -31.6815048872      -33.4231675011  TIP3      5947            0.0000000000
     42742      6148  TIP3      OH2            34.0753328885      -34.5500248151      -49.8836293920  TIP3      5948            0.0000000000
     42743      6148  TIP3      H1             34.8265491328      -35.0287537495      -49.4864561065  TIP3      5948            0.0000000000
     42744      6148  TIP3      H2             33.3649003689      -35.1883888711      -49.7081906218  TIP3      5948            0.0000000000
     42745      6149  TIP3      OH2            34.1319488941      -32.8184269431      -45.2242725808  TIP3      5949            0.0000000000
     42746      6149  TIP3      H1             34.4310603580      -33.6885432208      -44.8892187972  TIP3      5949            0.0000000000
     42747      6149  TIP3      H2             34.9658997061      -32.5196236175      -45.6374880127  TIP3      5949            0.0000000000
     42748      6150  TIP3      OH2            34.0882741510      -32.5463324881      -39.3550214771  TIP3      5950            0.0000000000
     42749      6150  TIP3      H1             35.0065144477      -32.5796083829      -39.7111621589  TIP3      5950            0.0000000000
     42750      6150  TIP3      H2             34.2612537367      -32.6209595768      -38.4015650777  TIP3      5950            0.0000000000
     42751      6151  TIP3      OH2            34.6146794824      -31.8400783445      -36.7381980933  TIP3      5951            0.0000000000
     42752      6151  TIP3      H1             33.6916167539      -31.5579701629      -36.6947472656  TIP3      5951            0.0000000000
     42753      6151  TIP3      H2             35.0723303934      -30.9925276546      -36.9450647185  TIP3      5951            0.0000000000
     42754      6152  TIP3      OH2            19.0177219088      -33.0012124169      -33.6323134222  TIP3      5952            0.0000000000
     42755      6152  TIP3      H1             19.8007555830      -33.1165079845      -33.0722155236  TIP3      5952            0.0000000000
     42756      6152  TIP3      H2             18.5122799364      -33.8114760607      -33.3945840034  TIP3      5952            0.0000000000
     42757      6153  TIP3      OH2            37.3917454271      -37.7122096422      -31.3080875651  TIP3      5953            0.0000000000
     42758      6153  TIP3      H1             38.2566723734      -37.6135442302      -31.7274468379  TIP3      5953            0.0000000000
     42759      6153  TIP3      H2             36.8531298667      -37.1248284262      -31.8900574785  TIP3      5953            0.0000000000
     42760      6154  TIP3      OH2            34.5625737475      -35.4147133615      -44.6637740606  TIP3      5954            0.0000000000
     42761      6154  TIP3      H1             34.7120489170      -35.9975890390      -43.8838394608  TIP3      5954            0.0000000000
     42762      6154  TIP3      H2             33.6745539373      -35.7308864773      -44.9590002443  TIP3      5954            0.0000000000
     42763      6155  TIP3      OH2            19.9544821632      -34.6594041000      -39.9599900830  TIP3      5955            0.0000000000
     42764      6155  TIP3      H1             20.3829029837      -35.5232695526      -39.8212478360  TIP3      5955            0.0000000000
     42765      6155  TIP3      H2             20.7343822586      -34.0865581090      -40.0039878437  TIP3      5955            0.0000000000
     42766      6156  TIP3      OH2            18.4356924371      -31.7859921380      -39.1869024498  TIP3      5956            0.0000000000
     42767      6156  TIP3      H1             19.0484126386      -32.0445305870      -39.9085044958  TIP3      5956            0.0000000000
     42768      6156  TIP3      H2             19.0235517987      -31.2333914884      -38.6597816964  TIP3      5956            0.0000000000
     42769      6157  TIP3      OH2            36.2460899931      -35.8605092889      -32.8756553632  TIP3      5957            0.0000000000
     42770      6157  TIP3      H1             35.4775716167      -35.3155760204      -32.5908695754  TIP3      5957            0.0000000000
     42771      6157  TIP3      H2             35.9793225555      -36.0700589457      -33.8039851556  TIP3      5957            0.0000000000
     42772      6158  TIP3      OH2            36.5036208017      -35.2986807017      -48.4365080344  TIP3      5958            0.0000000000
     42773      6158  TIP3      H1             36.6962049249      -36.0709103922      -48.9844332276  TIP3      5958            0.0000000000
     42774      6158  TIP3      H2             37.2883715913      -34.7377378092      -48.5922758807  TIP3      5958            0.0000000000
     42775      6159  TIP3      OH2            18.4866370097      -35.6664011978      -44.8807619125  TIP3      5959            0.0000000000
     42776      6159  TIP3      H1             17.5678154392      -35.4132340843      -45.0772958456  TIP3      5959            0.0000000000
     42777      6159  TIP3      H2             18.9415602451      -35.2399293910      -45.6388045872  TIP3      5959            0.0000000000
     42778      6160  TIP3      OH2            33.4027270323      -20.9207464636      -43.1846286006  TIP3      5960            0.0000000000
     42779      6160  TIP3      H1             33.9729390729      -21.0668779811      -43.9718292500  TIP3      5960            0.0000000000
     42780      6160  TIP3      H2             34.0261027321      -20.4912290019      -42.5870390493  TIP3      5960            0.0000000000
     42781      6161  TIP3      OH2            18.9453430787      -36.7036763677      -37.0297689210  TIP3      5961            0.0000000000
     42782      6161  TIP3      H1             18.3256095380      -36.5717938936      -36.2904718803  TIP3      5961            0.0000000000
     42783      6161  TIP3      H2             18.5231855621      -36.1464924103      -37.7192917585  TIP3      5961            0.0000000000
     42784      6162  TIP3      OH2            21.0038258952      -23.9439658459      -32.8974374141  TIP3      5962            0.0000000000
     42785      6162  TIP3      H1             20.1097656269      -23.7610444950      -33.2499785132  TIP3      5962            0.0000000000
     42786      6162  TIP3      H2             20.8535058088      -24.2833984452      -32.0101508132  TIP3      5962            0.0000000000
     42787      6163  TIP3      OH2            23.7927234968      -22.3867247547      -36.2437355527  TIP3      5963            0.0000000000
     42788      6163  TIP3      H1             23.7880186946      -21.4708298051      -36.6011684453  TIP3      5963            0.0000000000
     42789      6163  TIP3      H2             24.7489923860      -22.5947451757      -36.3286605552  TIP3      5963            0.0000000000
     42790      6164  TIP3      OH2            27.9060402391      -21.3137172467      -33.7429135926  TIP3      5964            0.0000000000
     42791      6164  TIP3      H1             28.0111251518      -21.5286612023      -32.7957554328  TIP3      5964            0.0000000000
     42792      6164  TIP3      H2             28.8074811946      -20.9725601817      -33.9414591332  TIP3      5964            0.0000000000
     42793      6165  TIP3      OH2            30.1645794541      -19.8398587539      -34.0767504904  TIP3      5965            0.0000000000
     42794      6165  TIP3      H1             30.9762455681      -20.1769463159      -34.4776358146  TIP3      5965            0.0000000000
     42795      6165  TIP3      H2             30.4860988864      -19.4758905610      -33.2234719364  TIP3      5965            0.0000000000
     42796      6166  TIP3      OH2            35.3515334774      -36.9683385276      -35.0687670968  TIP3      5966            0.0000000000
     42797      6166  TIP3      H1             34.4764186115      -36.7314405943      -35.4128134651  TIP3      5966            0.0000000000
     42798      6166  TIP3      H2             35.2489797847      -37.9406528157      -35.0110556837  TIP3      5966            0.0000000000
     42799      6167  TIP3      OH2            21.0967223829      -19.5974533640      -36.4613417420  TIP3      5967            0.0000000000
     42800      6167  TIP3      H1             20.4974024507      -18.9069259532      -36.8088790023  TIP3      5967            0.0000000000
     42801      6167  TIP3      H2             20.9662321665      -19.4781544711      -35.5052703219  TIP3      5967            0.0000000000
     42802      6168  TIP3      OH2            23.4951570465      -19.9520275389      -37.5823188022  TIP3      5968            0.0000000000
     42803      6168  TIP3      H1             22.5571322794      -19.7894416254      -37.3194712873  TIP3      5968            0.0000000000
     42804      6168  TIP3      H2             23.5967149452      -19.3415013143      -38.3276581956  TIP3      5968            0.0000000000
     42805      6169  TIP3      OH2            28.3910713689      -20.2983206220      -38.2908940829  TIP3      5969            0.0000000000
     42806      6169  TIP3      H1             27.7390553180      -19.8781654929      -38.8699706838  TIP3      5969            0.0000000000
     42807      6169  TIP3      H2             28.4995067589      -19.5985358151      -37.6103789089  TIP3      5969            0.0000000000
     42808      6170  TIP3      OH2            30.2922787590      -21.6385091295      -36.8300104411  TIP3      5970            0.0000000000
     42809      6170  TIP3      H1             29.6160453759      -21.2735989265      -37.4445440562  TIP3      5970            0.0000000000
     42810      6170  TIP3      H2             31.0266689063      -21.0113313238      -36.9626718259  TIP3      5970            0.0000000000
     42811      6171  TIP3      OH2            32.8652929373      -20.3200639864      -37.2521027083  TIP3      5971            0.0000000000
     42812      6171  TIP3      H1             33.0683042141      -19.3982268537      -37.4473976706  TIP3      5971            0.0000000000
     42813      6171  TIP3      H2             33.3198166974      -20.7502157557      -38.0151126490  TIP3      5971            0.0000000000
     42814      6172  TIP3      OH2            20.7623860768      -21.1435176522      -39.6032989895  TIP3      5972            0.0000000000
     42815      6172  TIP3      H1             20.6036809832      -21.7127241712      -38.8131309279  TIP3      5972            0.0000000000
     42816      6172  TIP3      H2             21.6751306824      -21.4225028248      -39.8451994302  TIP3      5972            0.0000000000
     42817      6173  TIP3      OH2            22.9791456483      -22.0954412350      -40.7420719261  TIP3      5973            0.0000000000
     42818      6173  TIP3      H1             22.8637080600      -23.0554725496      -40.5696387745  TIP3      5973            0.0000000000
     42819      6173  TIP3      H2             23.8682512253      -21.9694431677      -40.3450850330  TIP3      5973            0.0000000000
     42820      6174  TIP3      OH2            25.3187477831      -22.1009424899      -39.4767829532  TIP3      5974            0.0000000000
     42821      6174  TIP3      H1             25.6700157367      -23.0052947951      -39.5959657653  TIP3      5974            0.0000000000
     42822      6174  TIP3      H2             25.3888167443      -21.9894920054      -38.5134006666  TIP3      5974            0.0000000000
     42823      6175  TIP3      OH2            28.7421305010      -35.4334377240      -40.6511539909  TIP3      5975            0.0000000000
     42824      6175  TIP3      H1             28.2384512464      -36.2754521560      -40.6152235685  TIP3      5975            0.0000000000
     42825      6175  TIP3      H2             29.3645831932      -35.6535727762      -41.3670438538  TIP3      5975            0.0000000000
     42826      6176  TIP3      OH2            33.5298414078      -37.2390736820      -40.7287989686  TIP3      5976            0.0000000000
     42827      6176  TIP3      H1             34.0272939943      -37.0751145617      -41.5520017910  TIP3      5976            0.0000000000
     42828      6176  TIP3      H2             32.7113862523      -37.6479332500      -41.0567083274  TIP3      5976            0.0000000000
     42829      6177  TIP3      OH2            35.3332584499      -37.2606460103      -42.8397932192  TIP3      5977            0.0000000000
     42830      6177  TIP3      H1             36.0566539575      -37.8341694200      -43.1380284926  TIP3      5977            0.0000000000
     42831      6177  TIP3      H2             35.8100946898      -36.6026052779      -42.2815784331  TIP3      5977            0.0000000000
     42832      6178  TIP3      OH2            21.0134708558      -37.1319448927      -42.9888952385  TIP3      5978            0.0000000000
     42833      6178  TIP3      H1             20.4981059457      -36.9500372935      -43.7910556698  TIP3      5978            0.0000000000
     42834      6178  TIP3      H2             21.0895665487      -38.1163525658      -43.0633733138  TIP3      5978            0.0000000000
     42835      6179  TIP3      OH2            20.2435501176      -37.1294040313      -46.5390649183  TIP3      5979            0.0000000000
     42836      6179  TIP3      H1             20.4879540136      -36.7245774364      -47.3988955472  TIP3      5979            0.0000000000
     42837      6179  TIP3      H2             19.2860932882      -36.9782984848      -46.5187895533  TIP3      5979            0.0000000000
     42838      6180  TIP3      OH2            25.6348494936      -37.1402082687      -43.2771667819  TIP3      5980            0.0000000000
     42839      6180  TIP3      H1             26.4357016097      -36.8123581146      -43.7301857132  TIP3      5980            0.0000000000
     42840      6180  TIP3      H2             25.9246720381      -37.0226005154      -42.3488325507  TIP3      5980            0.0000000000
     42841      6181  TIP3      OH2            30.8704446861      -36.7439101313      -42.2045654071  TIP3      5981            0.0000000000
     42842      6181  TIP3      H1             31.4245303834      -36.5976818625      -42.9897760549  TIP3      5981            0.0000000000
     42843      6181  TIP3      H2             30.9511397554      -37.7058626883      -42.0586773719  TIP3      5981            0.0000000000
     42844      6182  TIP3      OH2            32.4702199514      -36.5693594599      -45.8104174183  TIP3      5982            0.0000000000
     42845      6182  TIP3      H1             31.5379369259      -36.3055418219      -45.9233255977  TIP3      5982            0.0000000000
     42846      6182  TIP3      H2             32.4594272737      -37.4746082803      -46.1734533794  TIP3      5982            0.0000000000
     42847      6183  TIP3      OH2            19.7844142839      -21.7927246833      -46.2739705179  TIP3      5983            0.0000000000
     42848      6183  TIP3      H1             18.9217113084      -21.7970691697      -46.7311505413  TIP3      5983            0.0000000000
     42849      6183  TIP3      H2             19.9816382113      -20.8512227923      -46.3536045663  TIP3      5983            0.0000000000
     42850      6184  TIP3      OH2            21.4389206215      -36.3491484515      -48.8209510054  TIP3      5984            0.0000000000
     42851      6184  TIP3      H1             22.2477703012      -36.8355742780      -49.0333134818  TIP3      5984            0.0000000000
     42852      6184  TIP3      H2             21.7779816110      -35.5010880429      -48.5092603976  TIP3      5984            0.0000000000
     42853      6185  TIP3      OH2            26.5849628303      -35.2551888726      -46.2445799128  TIP3      5985            0.0000000000
     42854      6185  TIP3      H1             27.0088467710      -35.9240246115      -45.6855210907  TIP3      5985            0.0000000000
     42855      6185  TIP3      H2             26.8929327452      -34.4661983432      -45.7544009129  TIP3      5985            0.0000000000
     42856      6186  TIP3      OH2            28.6271446967      -20.4200901071      -48.2843369246  TIP3      5986            0.0000000000
     42857      6186  TIP3      H1             29.5971038854      -20.3063762423      -48.3953800357  TIP3      5986            0.0000000000
     42858      6186  TIP3      H2             28.4233078700      -21.0068486146      -49.0419036707  TIP3      5986            0.0000000000
     42859      6187  TIP3      OH2            35.1578875335      -21.1305647910      -45.1136120479  TIP3      5987            0.0000000000
     42860      6187  TIP3      H1             35.0313233238      -22.0363533559      -45.4840956282  TIP3      5987            0.0000000000
     42861      6187  TIP3      H2             35.2111867630      -20.5673221163      -45.9129019027  TIP3      5987            0.0000000000
     42862      6188  TIP3      OH2            20.5496795843      -37.1583545516      -33.0817495006  TIP3      5988            0.0000000000
     42863      6188  TIP3      H1             20.6277944003      -38.0255230387      -33.5076287840  TIP3      5988            0.0000000000
     42864      6188  TIP3      H2             21.4202981678      -37.0926640051      -32.6347688068  TIP3      5988            0.0000000000
     42865      6189  TIP3      OH2            22.9118649380      -37.3236673868      -31.8419633905  TIP3      5989            0.0000000000
     42866      6189  TIP3      H1             23.8076226208      -36.9498162927      -31.8183870277  TIP3      5989            0.0000000000
     42867      6189  TIP3      H2             23.1132618559      -38.1995025434      -32.2604590328  TIP3      5989            0.0000000000
     42868      6190  TIP3      OH2            21.9507426871      -20.5008104820      -48.7017058559  TIP3      5990            0.0000000000
     42869      6190  TIP3      H1             21.3080649537      -20.2844855911      -48.0121101449  TIP3      5990            0.0000000000
     42870      6190  TIP3      H2             22.2640911781      -21.3848025655      -48.4626453561  TIP3      5990            0.0000000000
     42871      6191  TIP3      OH2            31.2851890571      -37.7738691274      -31.7960033210  TIP3      5991            0.0000000000
     42872      6191  TIP3      H1             31.0794464183      -38.7297262891      -31.7053860760  TIP3      5991            0.0000000000
     42873      6191  TIP3      H2             32.0767626287      -37.8246056585      -32.3427499632  TIP3      5991            0.0000000000
     42874      6192  TIP3      OH2            34.4610512213      -22.6586150491      -33.3553276069  TIP3      5992            0.0000000000
     42875      6192  TIP3      H1             33.8099603480      -22.5499753373      -34.0841582973  TIP3      5992            0.0000000000
     42876      6192  TIP3      H2             34.5063545177      -21.7318992105      -33.0607267038  TIP3      5992            0.0000000000
     42877      6193  TIP3      OH2            37.2357167232      -31.7660401936      -44.0932255862  TIP3      5993            0.0000000000
     42878      6193  TIP3      H1             37.1836277015      -30.7931351056      -44.1139475006  TIP3      5993            0.0000000000
     42879      6193  TIP3      H2             36.8738781811      -31.9658869155      -44.9778632471  TIP3      5993            0.0000000000
     42880      6194  TIP3      OH2            37.4095743379      -27.0655610844      -36.5132582043  TIP3      5994            0.0000000000
     42881      6194  TIP3      H1             36.9194238985      -27.1360488697      -37.3660612606  TIP3      5994            0.0000000000
     42882      6194  TIP3      H2             37.5790763805      -28.0112199379      -36.3014554258  TIP3      5994            0.0000000000
     42883      6195  TIP3      OH2            37.0808732409      -24.1141017146      -39.6908662492  TIP3      5995            0.0000000000
     42884      6195  TIP3      H1             38.0166444561      -24.1443598036      -39.9950751098  TIP3      5995            0.0000000000
     42885      6195  TIP3      H2             37.1100727482      -23.3806446791      -39.0600650283  TIP3      5995            0.0000000000
     42886      6196  TIP3      OH2            36.9366560658      -34.9495826684      -42.4107894125  TIP3      5996            0.0000000000
     42887      6196  TIP3      H1             37.7987488265      -34.5216972563      -42.1920846958  TIP3      5996            0.0000000000
     42888      6196  TIP3      H2             36.9533342437      -34.8365771456      -43.3752281582  TIP3      5996            0.0000000000
     42889      6197  TIP3      OH2            37.5902542666      -29.4748220446      -35.5799874607  TIP3      5997            0.0000000000
     42890      6197  TIP3      H1             37.3687261126      -30.0067653304      -34.7778326902  TIP3      5997            0.0000000000
     42891      6197  TIP3      H2             36.8483951249      -29.7492888449      -36.1673942640  TIP3      5997            0.0000000000
     42892      6198  TIP3      OH2            37.8586523677      -27.7172324239      -32.2120241002  TIP3      5998            0.0000000000
     42893      6198  TIP3      H1             37.2901683040      -27.9912317568      -31.4672984329  TIP3      5998            0.0000000000
     42894      6198  TIP3      H2             37.2196871843      -27.2757060854      -32.8142158609  TIP3      5998            0.0000000000
     42895      6199  TIP3      OH2            36.7333843825      -19.8765367801      -43.3683974418  TIP3      5999            0.0000000000
     42896      6199  TIP3      H1             36.1534841612      -20.3493834460      -44.0148094918  TIP3      5999            0.0000000000
     42897      6199  TIP3      H2             36.9547344854      -20.6392537315      -42.7875939283  TIP3      5999            0.0000000000
     42898      6200  TIP3      OH2            37.1991834321      -22.0912741523      -41.8384482072  TIP3      6000            0.0000000000
     42899      6200  TIP3      H1             36.8544723607      -22.9880056543      -41.7090443569  TIP3      6000            0.0000000000
     42900      6200  TIP3      H2             37.6111763466      -21.9539691617      -40.9718546580  TIP3      6000            0.0000000000
     42901      6201  TIP3      OH2            37.7392898529      -28.7847536184      -39.1167582470  TIP3      6001            0.0000000000
     42902      6201  TIP3      H1             37.7941545943      -28.9226418408      -40.0723517258  TIP3      6001            0.0000000000
     42903      6201  TIP3      H2             38.6315851493      -28.4008151941      -38.9663257458  TIP3      6001            0.0000000000
     42904      6202  TIP3      OH2            36.9197686145      -33.3422881703      -33.3228748517  TIP3      6002            0.0000000000
     42905      6202  TIP3      H1             37.8461474844      -33.0532574940      -33.2223652525  TIP3      6002            0.0000000000
     42906      6202  TIP3      H2             36.9221641157      -34.3057671357      -33.1890426826  TIP3      6002            0.0000000000
     42907      6203  TIP3      OH2            36.6250587703      -32.1440939811      -39.9822724818  TIP3      6003            0.0000000000
     42908      6203  TIP3      H1             37.5804631068      -32.3124136750      -40.1032681767  TIP3      6003            0.0000000000
     42909      6203  TIP3      H2             36.7376468675      -31.5057083124      -39.2537503648  TIP3      6003            0.0000000000
     42910      6204  TIP3      OH2            37.1774980776      -35.2294984241      -45.2530619539  TIP3      6004            0.0000000000
     42911      6204  TIP3      H1             36.2030095901      -35.3102836695      -45.1457526668  TIP3      6004            0.0000000000
     42912      6204  TIP3      H2             37.2569408634      -35.2228076057      -46.2211196734  TIP3      6004            0.0000000000
     42913      6205  TIP3      OH2            36.8664520486      -36.5191638062      -37.1688175595  TIP3      6005            0.0000000000
     42914      6205  TIP3      H1             36.2890313478      -36.4831123623      -36.3722088016  TIP3      6005            0.0000000000
     42915      6205  TIP3      H2             36.4869948283      -35.8217542929      -37.7496257552  TIP3      6005            0.0000000000
     42916      6206  TIP3      OH2           -26.0557724236       -9.4229320853      -43.0534482630  TIP3      6006            0.0000000000
     42917      6206  TIP3      H1            -26.0880782287       -8.5019009513      -42.7235624934  TIP3      6006            0.0000000000
     42918      6206  TIP3      H2            -26.7816729043       -9.4160113583      -43.7003214357  TIP3      6006            0.0000000000
     42919      6207  TIP3      OH2           -27.3745752921      -10.7475253034      -39.8129119330  TIP3      6007            0.0000000000
     42920      6207  TIP3      H1            -27.5614055334      -11.3111068242      -39.0340357587  TIP3      6007            0.0000000000
     42921      6207  TIP3      H2            -28.0007805212      -11.0810781873      -40.4865066579  TIP3      6007            0.0000000000
     42922      6208  TIP3      OH2           -34.9850147358      -10.6356190149      -38.3818056790  TIP3      6008            0.0000000000
     42923      6208  TIP3      H1            -35.0227332719      -11.4661332036      -37.8929839807  TIP3      6008            0.0000000000
     42924      6208  TIP3      H2            -34.4334416733      -10.1032328363      -37.7812804505  TIP3      6008            0.0000000000
     42925      6209  TIP3      OH2           -24.2967250288       -7.4936016222      -41.1229074654  TIP3      6009            0.0000000000
     42926      6209  TIP3      H1            -24.4284544827       -8.2325087717      -40.5003750311  TIP3      6009            0.0000000000
     42927      6209  TIP3      H2            -24.0295676931       -6.7797513243      -40.5225633897  TIP3      6009            0.0000000000
     42928      6210  TIP3      OH2           -34.7646590518       -6.1337756066      -40.0134753431  TIP3      6010            0.0000000000
     42929      6210  TIP3      H1            -34.9714125003       -7.0800917951      -40.2019474260  TIP3      6010            0.0000000000
     42930      6210  TIP3      H2            -33.8028615417       -6.2105731426      -39.9527812949  TIP3      6010            0.0000000000
     42931      6211  TIP3      OH2           -36.8964373748      -12.6148854397      -44.4011887253  TIP3      6011            0.0000000000
     42932      6211  TIP3      H1            -37.1793634973      -12.0493839606      -43.6716195985  TIP3      6011            0.0000000000
     42933      6211  TIP3      H2            -37.7306554301      -13.1160579108      -44.5309126794  TIP3      6011            0.0000000000
     42934      6212  TIP3      OH2           -37.2293018752      -10.5197061834      -41.7854214621  TIP3      6012            0.0000000000
     42935      6212  TIP3      H1            -36.7094945996      -11.2886638465      -41.4704000304  TIP3      6012            0.0000000000
     42936      6212  TIP3      H2            -36.5728286596      -10.0726770337      -42.3433689880  TIP3      6012            0.0000000000
     42937      6213  TIP3      OH2           -26.4456047658       -1.8883262723      -40.8923389029  TIP3      6013            0.0000000000
     42938      6213  TIP3      H1            -25.8532118823       -2.5060558961      -41.3964527565  TIP3      6013            0.0000000000
     42939      6213  TIP3      H2            -27.0543066671       -2.5456793613      -40.5296485679  TIP3      6013            0.0000000000
     42940      6214  TIP3      OH2           -29.2047908971       -8.1890394083      -38.8906837567  TIP3      6014            0.0000000000
     42941      6214  TIP3      H1            -28.8329893054       -8.4050246677      -39.7530974573  TIP3      6014            0.0000000000
     42942      6214  TIP3      H2            -28.4261008720       -7.7851414765      -38.4456850261  TIP3      6014            0.0000000000
     42943      6215  TIP3      OH2           -20.6011459287      -16.5089167217      -38.7146384015  TIP3      6015            0.0000000000
     42944      6215  TIP3      H1            -20.4505879821      -15.9186538613      -37.9448155376  TIP3      6015            0.0000000000
     42945      6215  TIP3      H2            -19.8179891490      -16.3069867292      -39.2519240978  TIP3      6015            0.0000000000
     42946      6216  TIP3      OH2           -25.4837514892      -13.5290301170      -38.7092376273  TIP3      6016            0.0000000000
     42947      6216  TIP3      H1            -25.4301464280      -14.4952478480      -38.5595783341  TIP3      6016            0.0000000000
     42948      6216  TIP3      H2            -25.7086323855      -13.5630172320      -39.6600414752  TIP3      6016            0.0000000000
     42949      6217  TIP3      OH2           -32.5376161158      -15.5572497145      -41.8480658475  TIP3      6017            0.0000000000
     42950      6217  TIP3      H1            -32.3654558296      -14.7631827770      -42.4051428207  TIP3      6017            0.0000000000
     42951      6217  TIP3      H2            -32.9765382865      -16.1271463380      -42.5089710210  TIP3      6017            0.0000000000
     42952      6218  TIP3      OH2           -25.1636213470      -15.3164808738      -43.3060089870  TIP3      6018            0.0000000000
     42953      6218  TIP3      H1            -24.6926214952      -15.6041336756      -42.4881961320  TIP3      6018            0.0000000000
     42954      6218  TIP3      H2            -24.5092944575      -14.7115777515      -43.6855015013  TIP3      6018            0.0000000000
     42955      6219  TIP3      OH2           -35.5953606206      -12.7160027393      -41.1955269307  TIP3      6019            0.0000000000
     42956      6219  TIP3      H1            -35.1053086211      -13.3430516735      -40.6324352345  TIP3      6019            0.0000000000
     42957      6219  TIP3      H2            -35.5253164339      -13.1963343461      -42.0480252847  TIP3      6019            0.0000000000
     42958      6220  TIP3      OH2           -31.7430002114      -11.4462493911      -41.5557059364  TIP3      6020            0.0000000000
     42959      6220  TIP3      H1            -30.8482378801      -11.7324736105      -41.3023057696  TIP3      6020            0.0000000000
     42960      6220  TIP3      H2            -31.9617125026      -12.1634942233      -42.1979569679  TIP3      6020            0.0000000000
     42961      6221  TIP3      OH2           -20.3733400867      -15.0096443948      -36.4904239361  TIP3      6021            0.0000000000
     42962      6221  TIP3      H1            -20.7751722075      -14.1740030930      -36.8371647753  TIP3      6021            0.0000000000
     42963      6221  TIP3      H2            -20.0500587726      -14.6813073721      -35.6381145824  TIP3      6021            0.0000000000
     42964      6222  TIP3      OH2           -33.7761626634      -16.4726269647      -37.7256607904  TIP3      6022            0.0000000000
     42965      6222  TIP3      H1            -33.9927610974      -15.9630279223      -38.5285331160  TIP3      6022            0.0000000000
     42966      6222  TIP3      H2            -34.3895471511      -16.0558772659      -37.0840619785  TIP3      6022            0.0000000000
     42967      6223  TIP3      OH2           -26.8657021009       -6.8286777970      -44.2676522047  TIP3      6023            0.0000000000
     42968      6223  TIP3      H1            -26.9585833040       -6.9107111548      -45.2352383244  TIP3      6023            0.0000000000
     42969      6223  TIP3      H2            -27.2142462446       -5.9184516948      -44.1316974921  TIP3      6023            0.0000000000
     42970      6224  TIP3      OH2           -31.4698943259       -8.7308288893      -37.5629627592  TIP3      6024            0.0000000000
     42971      6224  TIP3      H1            -32.0299648854       -7.9577514834      -37.3336828474  TIP3      6024            0.0000000000
     42972      6224  TIP3      H2            -30.7290045667       -8.3086128499      -38.0548406722  TIP3      6024            0.0000000000
     42973      6225  TIP3      OH2           -23.4184152143      -15.6608073241      -41.2795794791  TIP3      6025            0.0000000000
     42974      6225  TIP3      H1            -23.4659478170      -16.4737386574      -40.7709225764  TIP3      6025            0.0000000000
     42975      6225  TIP3      H2            -22.5937199388      -15.2618608096      -40.9585048604  TIP3      6025            0.0000000000
     42976      6226  TIP3      OH2           -34.2229779699      -14.5428709473      -39.7518129357  TIP3      6026            0.0000000000
     42977      6226  TIP3      H1            -33.6349206403      -13.8884163361      -39.2991318226  TIP3      6026            0.0000000000
     42978      6226  TIP3      H2            -33.6449319563      -14.8465238739      -40.4910670523  TIP3      6026            0.0000000000
     42979      6227  TIP3      OH2           -32.7971309101       -6.4557587625      -36.8374434204  TIP3      6027            0.0000000000
     42980      6227  TIP3      H1            -33.0364456690       -5.6321345945      -37.2861252248  TIP3      6027            0.0000000000
     42981      6227  TIP3      H2            -33.6384231926       -6.6751687768      -36.3861733523  TIP3      6027            0.0000000000
     42982      6228  TIP3      OH2           -37.3662706092       -7.1982358490      -45.9508552310  TIP3      6028            0.0000000000
     42983      6228  TIP3      H1            -37.2384398786       -6.7989097425      -46.8367800466  TIP3      6028            0.0000000000
     42984      6228  TIP3      H2            -36.9588216836       -6.5551975510      -45.3405199702  TIP3      6028            0.0000000000
     42985      6229  TIP3      OH2           -23.2625380269       -5.4307049040      -39.2492113506  TIP3      6029            0.0000000000
     42986      6229  TIP3      H1            -24.1920809426       -5.2728031353      -38.9904503447  TIP3      6029            0.0000000000
     42987      6229  TIP3      H2            -23.0501572193       -4.5448859984      -39.5839644788  TIP3      6029            0.0000000000
     42988      6230  TIP3      OH2           -23.3912266752      -16.8797499858      -37.9381789029  TIP3      6030            0.0000000000
     42989      6230  TIP3      H1            -24.1267921992      -16.5282291272      -38.4886875739  TIP3      6030            0.0000000000
     42990      6230  TIP3      H2            -22.6108649311      -16.6889632823      -38.4865321834  TIP3      6030            0.0000000000
     42991      6231  TIP3      OH2           -30.1446497412      -18.9738457393      -40.5418760302  TIP3      6031            0.0000000000
     42992      6231  TIP3      H1            -30.4536055100      -19.8652668570      -40.3309278264  TIP3      6031            0.0000000000
     42993      6231  TIP3      H2            -30.8674290396      -18.4311603081      -40.1284171070  TIP3      6031            0.0000000000
     42994      6232  TIP3      OH2           -24.9827516992       -3.6058159817      -42.3984118113  TIP3      6032            0.0000000000
     42995      6232  TIP3      H1            -24.8550923483       -4.4352891638      -42.8887900152  TIP3      6032            0.0000000000
     42996      6232  TIP3      H2            -24.1526262122       -3.1443306423      -42.6762243325  TIP3      6032            0.0000000000
     42997      6233  TIP3      OH2           -23.8880887228       -5.7494187018      -43.9261055278  TIP3      6033            0.0000000000
     42998      6233  TIP3      H1            -23.9724969495       -6.4752234561      -44.5773845888  TIP3      6033            0.0000000000
     42999      6233  TIP3      H2            -23.9969734066       -6.2686039871      -43.1165095384  TIP3      6033            0.0000000000
     43000      6234  TIP3      OH2           -22.3080970287       -7.1377382109      -35.4174065831  TIP3      6034            0.0000000000
     43001      6234  TIP3      H1            -22.0941377989       -7.8297979166      -36.0883350686  TIP3      6034            0.0000000000
     43002      6234  TIP3      H2            -22.2388605338       -6.3439093431      -35.9834782024  TIP3      6034            0.0000000000
     43003      6235  TIP3      OH2           -27.5529356805       -9.8678718545      -45.6563105942  TIP3      6035            0.0000000000
     43004      6235  TIP3      H1            -28.1450976155       -9.1265695279      -45.9088456311  TIP3      6035            0.0000000000
     43005      6235  TIP3      H2            -26.7838526408       -9.7321212041      -46.2390418887  TIP3      6035            0.0000000000
     43006      6236  TIP3      OH2           -27.2872725891      -11.5590225641      -48.5525983655  TIP3      6036            0.0000000000
     43007      6236  TIP3      H1            -26.6022611469      -11.1248211945      -47.9837164101  TIP3      6036            0.0000000000
     43008      6236  TIP3      H2            -26.8049265951      -12.4035955323      -48.7110241900  TIP3      6036            0.0000000000
     43009      6237  TIP3      OH2           -20.2524258485      -10.6464946583      -37.5074841025  TIP3      6037            0.0000000000
     43010      6237  TIP3      H1            -20.9630005480       -9.9706730915      -37.4814190707  TIP3      6037            0.0000000000
     43011      6237  TIP3      H2            -19.6502404858      -10.2243055753      -38.1595634075  TIP3      6037            0.0000000000
     43012      6238  TIP3      OH2           -24.0355104105      -10.3290571762      -44.6682688180  TIP3      6038            0.0000000000
     43013      6238  TIP3      H1            -24.7027183866       -9.9125346674      -44.0726443844  TIP3      6038            0.0000000000
     43014      6238  TIP3      H2            -23.3828604358      -10.6733715313      -44.0147569329  TIP3      6038            0.0000000000
     43015      6239  TIP3      OH2           -23.9470321246      -11.8979565796      -35.5481637345  TIP3      6039            0.0000000000
     43016      6239  TIP3      H1            -24.0571120265      -10.9971010367      -35.1970090536  TIP3      6039            0.0000000000
     43017      6239  TIP3      H2            -24.5500076769      -11.8839982763      -36.3118888548  TIP3      6039            0.0000000000
     43018      6240  TIP3      OH2           -32.7339659057       -9.2558988237      -42.7498180079  TIP3      6040            0.0000000000
     43019      6240  TIP3      H1            -33.1902795589       -9.6118780366      -43.5399176145  TIP3      6040            0.0000000000
     43020      6240  TIP3      H2            -32.4858150624      -10.0728215969      -42.2698570128  TIP3      6040            0.0000000000
     43021      6241  TIP3      OH2           -31.2641832590       -6.2839065088      -40.2174091401  TIP3      6041            0.0000000000
     43022      6241  TIP3      H1            -31.1166241585       -6.3225390300      -41.1795168813  TIP3      6041            0.0000000000
     43023      6241  TIP3      H2            -30.5361541458       -6.8147942291      -39.8665928608  TIP3      6041            0.0000000000
     43024      6242  TIP3      OH2           -31.9689283417      -10.9242664252      -38.9637181627  TIP3      6042            0.0000000000
     43025      6242  TIP3      H1            -31.8364746708      -10.8059183752      -39.9319959724  TIP3      6042            0.0000000000
     43026      6242  TIP3      H2            -31.8941256186      -10.0279256196      -38.5706021993  TIP3      6042            0.0000000000
     43027      6243  TIP3      OH2           -25.8026670074       -5.0351734278      -38.4603686260  TIP3      6043            0.0000000000
     43028      6243  TIP3      H1            -25.9892727866       -4.3661075402      -37.7835616548  TIP3      6043            0.0000000000
     43029      6243  TIP3      H2            -26.3260630379       -5.7863542086      -38.1162781754  TIP3      6043            0.0000000000
     43030      6244  TIP3      OH2           -31.3103858355       -6.1562151861      -34.6090433136  TIP3      6044            0.0000000000
     43031      6244  TIP3      H1            -32.1018832700       -5.7549845256      -34.1906893369  TIP3      6044            0.0000000000
     43032      6244  TIP3      H2            -31.6473179693       -6.2863656087      -35.5256792272  TIP3      6044            0.0000000000
     43033      6245  TIP3      OH2           -25.3351454355      -10.6149887578      -46.9895581210  TIP3      6045            0.0000000000
     43034      6245  TIP3      H1            -24.8655931864      -10.5680179544      -46.1180836814  TIP3      6045            0.0000000000
     43035      6245  TIP3      H2            -24.6842674542      -10.1433947239      -47.5676380136  TIP3      6045            0.0000000000
     43036      6246  TIP3      OH2           -33.8479509146      -10.0477835246      -35.6063733498  TIP3      6046            0.0000000000
     43037      6246  TIP3      H1            -33.9274217858       -9.2129516906      -35.1019367975  TIP3      6046            0.0000000000
     43038      6246  TIP3      H2            -34.7674306591      -10.3624304912      -35.6094372560  TIP3      6046            0.0000000000
     43039      6247  TIP3      OH2           -27.7078771971       -4.1537939851      -44.1826213032  TIP3      6047            0.0000000000
     43040      6247  TIP3      H1            -27.3829128988       -3.8037438845      -43.3459744223  TIP3      6047            0.0000000000
     43041      6247  TIP3      H2            -28.1978831145       -3.4203602287      -44.5812898532  TIP3      6047            0.0000000000
     43042      6248  TIP3      OH2           -33.1774434309       -4.4240983132      -33.7226948162  TIP3      6048            0.0000000000
     43043      6248  TIP3      H1            -33.3051309863       -4.2207086891      -34.6730978473  TIP3      6048            0.0000000000
     43044      6248  TIP3      H2            -34.1108366837       -4.5524997446      -33.4494977290  TIP3      6048            0.0000000000
     43045      6249  TIP3      OH2           -21.3328411203      -19.2140382472      -46.8053616053  TIP3      6049            0.0000000000
     43046      6249  TIP3      H1            -22.3099663245      -19.2645391839      -46.6720087758  TIP3      6049            0.0000000000
     43047      6249  TIP3      H2            -21.2547438657      -18.2896358837      -47.1097337803  TIP3      6049            0.0000000000
     43048      6250  TIP3      OH2           -34.0460044118      -10.6220452735      -44.9583323812  TIP3      6050            0.0000000000
     43049      6250  TIP3      H1            -34.2649435674       -9.9739306001      -45.6566959141  TIP3      6050            0.0000000000
     43050      6250  TIP3      H2            -34.1718858983      -11.4766139374      -45.3934491051  TIP3      6050            0.0000000000
     43051      6251  TIP3      OH2           -20.4678997497       -4.5083742955      -48.6008243519  TIP3      6051            0.0000000000
     43052      6251  TIP3      H1            -20.1614895947       -3.5789581192      -48.5346312517  TIP3      6051            0.0000000000
     43053      6251  TIP3      H2            -19.6354148055       -5.0030455096      -48.4554683049  TIP3      6051            0.0000000000
     43054      6252  TIP3      OH2           -36.6453514380       -8.2824670836      -36.2150331509  TIP3      6052            0.0000000000
     43055      6252  TIP3      H1            -37.5846219044       -8.2386513823      -36.5065679307  TIP3      6052            0.0000000000
     43056      6252  TIP3      H2            -36.5487098612       -9.2067486414      -35.9158804384  TIP3      6052            0.0000000000
     43057      6253  TIP3      OH2           -37.0835934399       -4.8562244658      -39.9469347735  TIP3      6053            0.0000000000
     43058      6253  TIP3      H1            -36.3471949442       -5.5125426139      -39.8837888378  TIP3      6053            0.0000000000
     43059      6253  TIP3      H2            -36.9573233620       -4.3596274206      -39.1172222905  TIP3      6053            0.0000000000
     43060      6254  TIP3      OH2           -19.5287188169       -4.5637160678      -33.6594934806  TIP3      6054            0.0000000000
     43061      6254  TIP3      H1            -19.6653742933       -5.4983109797      -33.8713091004  TIP3      6054            0.0000000000
     43062      6254  TIP3      H2            -20.4274448810       -4.3593981352      -33.3020383921  TIP3      6054            0.0000000000
     43063      6255  TIP3      OH2           -28.8403481516       -5.1278587726      -34.8488933216  TIP3      6055            0.0000000000
     43064      6255  TIP3      H1            -28.7005868198       -4.3402011280      -34.2875862085  TIP3      6055            0.0000000000
     43065      6255  TIP3      H2            -29.7801285583       -5.3843384523      -34.6765960553  TIP3      6055            0.0000000000
     43066      6256  TIP3      OH2           -28.3635239566       -1.3763795392      -45.4295655756  TIP3      6056            0.0000000000
     43067      6256  TIP3      H1            -28.1030950188       -1.1870613204      -46.3491028361  TIP3      6056            0.0000000000
     43068      6256  TIP3      H2            -28.1915865899       -0.5143425627      -44.9949511525  TIP3      6056            0.0000000000
     43069      6257  TIP3      OH2           -34.3418974847       -2.7643246145      -43.3392190408  TIP3      6057            0.0000000000
     43070      6257  TIP3      H1            -34.0964738428       -2.8952304740      -42.3906581278  TIP3      6057            0.0000000000
     43071      6257  TIP3      H2            -35.3131638295       -2.7511591677      -43.2443027450  TIP3      6057            0.0000000000
     43072      6258  TIP3      OH2           -25.3518146236       -1.5074795504      -48.0040530621  TIP3      6058            0.0000000000
     43073      6258  TIP3      H1            -24.8451967575       -2.2534278970      -48.4001260921  TIP3      6058            0.0000000000
     43074      6258  TIP3      H2            -25.0311578912       -1.5195370479      -47.0973806226  TIP3      6058            0.0000000000
     43075      6259  TIP3      OH2           -25.5353345644       -2.0514593889      -45.1063295222  TIP3      6059            0.0000000000
     43076      6259  TIP3      H1            -26.5044339557       -2.0988502687      -45.0354462625  TIP3      6059            0.0000000000
     43077      6259  TIP3      H2            -25.2672845651       -2.9347303061      -44.8026996692  TIP3      6059            0.0000000000
     43078      6260  TIP3      OH2           -22.8127624681      -13.2620916064      -33.2610692441  TIP3      6060            0.0000000000
     43079      6260  TIP3      H1            -23.1265644762      -12.7542649031      -34.0396618291  TIP3      6060            0.0000000000
     43080      6260  TIP3      H2            -22.6310227987      -14.1240357288      -33.6941826858  TIP3      6060            0.0000000000
     43081      6261  TIP3      OH2           -35.2291109156       -6.1327512755      -35.5388820645  TIP3      6061            0.0000000000
     43082      6261  TIP3      H1            -35.1101514406       -6.4310503721      -34.6198036391  TIP3      6061            0.0000000000
     43083      6261  TIP3      H2            -35.8151966588       -6.8578316581      -35.8587293428  TIP3      6061            0.0000000000
     43084      6262  TIP3      OH2           -32.3829839649      -17.8875998478      -39.5423806927  TIP3      6062            0.0000000000
     43085      6262  TIP3      H1            -33.2285665442      -17.8390111830      -40.0323609362  TIP3      6062            0.0000000000
     43086      6262  TIP3      H2            -32.6646107085      -17.5108288276      -38.6878003553  TIP3      6062            0.0000000000
     43087      6263  TIP3      OH2           -27.8079522262      -18.6737886341      -36.2919365494  TIP3      6063            0.0000000000
     43088      6263  TIP3      H1            -27.5073858015      -19.1210719563      -35.4807289445  TIP3      6063            0.0000000000
     43089      6263  TIP3      H2            -28.7918911385      -18.7005340844      -36.1989090744  TIP3      6063            0.0000000000
     43090      6264  TIP3      OH2           -24.9256230467      -14.3632270641      -35.1200254139  TIP3      6064            0.0000000000
     43091      6264  TIP3      H1            -25.2837289146      -14.6151809211      -34.2410027844  TIP3      6064            0.0000000000
     43092      6264  TIP3      H2            -24.6203684976      -13.4469480468      -35.0065026805  TIP3      6064            0.0000000000
     43093      6265  TIP3      OH2           -23.6880424921       -9.5039922926      -48.6097359582  TIP3      6065            0.0000000000
     43094      6265  TIP3      H1            -24.0526722836       -9.4759114713      -49.5320933248  TIP3      6065            0.0000000000
     43095      6265  TIP3      H2            -22.7522726815       -9.3221162594      -48.8437842021  TIP3      6065            0.0000000000
     43096      6266  TIP3      OH2           -28.0830454760      -15.8360910776      -48.5250536918  TIP3      6066            0.0000000000
     43097      6266  TIP3      H1            -28.5593698849      -16.1938179157      -47.7357764430  TIP3      6066            0.0000000000
     43098      6266  TIP3      H2            -28.6136910721      -16.2251885255      -49.2241095573  TIP3      6066            0.0000000000
     43099      6267  TIP3      OH2           -32.4907912253      -13.3401470573      -38.0371282408  TIP3      6067            0.0000000000
     43100      6267  TIP3      H1            -33.3311379232      -13.2229440605      -37.5470456823  TIP3      6067            0.0000000000
     43101      6267  TIP3      H2            -32.3016952263      -12.4208728907      -38.3512625774  TIP3      6067            0.0000000000
     43102      6268  TIP3      OH2           -32.2932980892      -13.3754625314      -43.3568498166  TIP3      6068            0.0000000000
     43103      6268  TIP3      H1            -33.2814755519      -13.3509567376      -43.4681838915  TIP3      6068            0.0000000000
     43104      6268  TIP3      H2            -31.9992232362      -13.5549969020      -44.2696879151  TIP3      6068            0.0000000000
     43105      6269  TIP3      OH2           -26.8019459686      -12.2339327417      -44.3040205036  TIP3      6069            0.0000000000
     43106      6269  TIP3      H1            -27.1409983102      -11.4654708335      -44.8233103974  TIP3      6069            0.0000000000
     43107      6269  TIP3      H2            -26.1879304033      -12.6322934096      -44.9537553018  TIP3      6069            0.0000000000
     43108      6270  TIP3      OH2           -28.2114634005      -12.1873032859      -33.0014892040  TIP3      6070            0.0000000000
     43109      6270  TIP3      H1            -28.5929200981      -13.0097748630      -32.6023129709  TIP3      6070            0.0000000000
     43110      6270  TIP3      H2            -27.3408749813      -12.1948935072      -32.5683530138  TIP3      6070            0.0000000000
     43111      6271  TIP3      OH2           -25.8916327558      -13.0331930810      -41.6548749797  TIP3      6071            0.0000000000
     43112      6271  TIP3      H1            -26.0676772483      -12.1870522703      -42.1081192734  TIP3      6071            0.0000000000
     43113      6271  TIP3      H2            -25.8251236659      -13.6153190506      -42.4369711153  TIP3      6071            0.0000000000
     43114      6272  TIP3      OH2           -34.9028912214      -13.2504807127      -36.8040751676  TIP3      6072            0.0000000000
     43115      6272  TIP3      H1            -35.1708599067      -12.8114655712      -35.9855394522  TIP3      6072            0.0000000000
     43116      6272  TIP3      H2            -35.1869649166      -14.1700876067      -36.6208720834  TIP3      6072            0.0000000000
     43117      6273  TIP3      OH2           -31.7927663857      -16.1972997795      -49.5705260255  TIP3      6073            0.0000000000
     43118      6273  TIP3      H1            -31.9456832989      -15.9953038359      -48.6384643223  TIP3      6073            0.0000000000
     43119      6273  TIP3      H2            -32.3882609835      -15.6060721722      -50.0468195718  TIP3      6073            0.0000000000
     43120      6274  TIP3      OH2           -37.1124384420      -15.3851896238      -42.6364532362  TIP3      6074            0.0000000000
     43121      6274  TIP3      H1            -36.7822668446      -15.8983616044      -41.8719016402  TIP3      6074            0.0000000000
     43122      6274  TIP3      H2            -37.0872123118      -16.0034074446      -43.3821693071  TIP3      6074            0.0000000000
     43123      6275  TIP3      OH2           -37.2574974056      -15.1551719331      -47.2781787428  TIP3      6075            0.0000000000
     43124      6275  TIP3      H1            -36.5295291854      -14.7295162799      -47.7619054669  TIP3      6075            0.0000000000
     43125      6275  TIP3      H2            -37.8114501407      -14.3831455053      -47.1134511849  TIP3      6075            0.0000000000
     43126      6276  TIP3      OH2           -27.1369092749      -12.0489712905      -37.2364154681  TIP3      6076            0.0000000000
     43127      6276  TIP3      H1            -26.3864551163      -12.4551141376      -37.7154779434  TIP3      6076            0.0000000000
     43128      6276  TIP3      H2            -27.4299788430      -12.7962180063      -36.6755798091  TIP3      6076            0.0000000000
     43129      6277  TIP3      OH2           -29.6822786573      -15.6760170745      -42.3176446204  TIP3      6077            0.0000000000
     43130      6277  TIP3      H1            -30.5872242518      -15.5396174236      -41.9803468429  TIP3      6077            0.0000000000
     43131      6277  TIP3      H2            -29.2215200500      -16.0511583448      -41.5564423160  TIP3      6077            0.0000000000
     43132      6278  TIP3      OH2           -34.8513594399      -13.9469077982      -43.5107642443  TIP3      6078            0.0000000000
     43133      6278  TIP3      H1            -35.6583578628      -13.6793674642      -44.0260281555  TIP3      6078            0.0000000000
     43134      6278  TIP3      H2            -34.9086945174      -14.9309264908      -43.5829812145  TIP3      6078            0.0000000000
     43135      6279  TIP3      OH2           -31.5103307733      -14.0944147872      -45.9590549428  TIP3      6079            0.0000000000
     43136      6279  TIP3      H1            -30.6009053287      -13.7808048023      -45.8002649578  TIP3      6079            0.0000000000
     43137      6279  TIP3      H2            -31.8957250693      -13.3695917976      -46.5128391030  TIP3      6079            0.0000000000
     43138      6280  TIP3      OH2           -25.6416974942      -16.2660931194      -39.1031198869  TIP3      6080            0.0000000000
     43139      6280  TIP3      H1            -26.2412036159      -16.3908402597      -38.3401090086  TIP3      6080            0.0000000000
     43140      6280  TIP3      H2            -26.0285140967      -16.8247566236      -39.7904743560  TIP3      6080            0.0000000000
     43141      6281  TIP3      OH2           -32.4423017058      -12.4631022396      -47.9133280940  TIP3      6081            0.0000000000
     43142      6281  TIP3      H1            -33.1996050890      -12.8448050511      -48.3957830369  TIP3      6081            0.0000000000
     43143      6281  TIP3      H2            -31.7774469796      -12.3353499033      -48.6134745336  TIP3      6081            0.0000000000
     43144      6282  TIP3      OH2           -22.6249857190       -0.5114051889      -32.6127858638  TIP3      6082            0.0000000000
     43145      6282  TIP3      H1            -22.3770707710       -0.0103429598      -33.4044934476  TIP3      6082            0.0000000000
     43146      6282  TIP3      H2            -21.7953143342       -0.4431363702      -32.1157197875  TIP3      6082            0.0000000000
     43147      6283  TIP3      OH2           -34.1867113927       -8.0231368336      -33.6149965510  TIP3      6083            0.0000000000
     43148      6283  TIP3      H1            -33.5664938009       -7.9542290441      -32.8588275657  TIP3      6083            0.0000000000
     43149      6283  TIP3      H2            -34.9675969766       -8.4060759297      -33.1783645557  TIP3      6083            0.0000000000
     43150      6284  TIP3      OH2           -28.9892369636      -12.9156385300      -40.7562773693  TIP3      6084            0.0000000000
     43151      6284  TIP3      H1            -28.1115537260      -13.0300746830      -41.1569485153  TIP3      6084            0.0000000000
     43152      6284  TIP3      H2            -29.1236191363      -13.7817732799      -40.3574921501  TIP3      6084            0.0000000000
     43153      6285  TIP3      OH2           -34.3271759640      -16.5174878341      -43.8654904947  TIP3      6085            0.0000000000
     43154      6285  TIP3      H1            -34.8640748294      -17.2958731433      -43.5819245022  TIP3      6085            0.0000000000
     43155      6285  TIP3      H2            -34.2503043626      -16.6837329249      -44.8179832017  TIP3      6085            0.0000000000
     43156      6286  TIP3      OH2           -30.1590706805      -14.6096403401      -38.1319923880  TIP3      6086            0.0000000000
     43157      6286  TIP3      H1            -30.9860808109      -14.0844824306      -38.2020140997  TIP3      6086            0.0000000000
     43158      6286  TIP3      H2            -29.5500308572      -13.9937921504      -37.7238740787  TIP3      6086            0.0000000000
     43159      6287  TIP3      OH2           -29.3896737931       -7.9761661108      -46.1532574313  TIP3      6087            0.0000000000
     43160      6287  TIP3      H1            -30.1497231410       -8.4420706330      -46.5710559235  TIP3      6087            0.0000000000
     43161      6287  TIP3      H2            -29.7709800410       -7.8550494024      -45.2546182292  TIP3      6087            0.0000000000
     43162      6288  TIP3      OH2           -22.1530768046       -8.7230613217      -37.4731520880  TIP3      6088            0.0000000000
     43163      6288  TIP3      H1            -21.6094456007       -8.1738683118      -38.0982520792  TIP3      6088            0.0000000000
     43164      6288  TIP3      H2            -22.9411511643       -8.8575912110      -38.0194075077  TIP3      6088            0.0000000000
     43165      6289  TIP3      OH2           -25.5660967748      -15.3021117691      -48.0542919877  TIP3      6089            0.0000000000
     43166      6289  TIP3      H1            -26.5440961934      -15.3646702864      -48.1641611924  TIP3      6089            0.0000000000
     43167      6289  TIP3      H2            -25.4390320958      -14.4102988081      -47.6638849346  TIP3      6089            0.0000000000
     43168      6290  TIP3      OH2           -28.3291645695       -7.8419541655      -34.9437721836  TIP3      6090            0.0000000000
     43169      6290  TIP3      H1            -28.7529655508       -7.9355807742      -34.0767636937  TIP3      6090            0.0000000000
     43170      6290  TIP3      H2            -28.3862138435       -6.8709411930      -35.0637768970  TIP3      6090            0.0000000000
     43171      6291  TIP3      OH2           -24.9797343438      -13.2494903187      -46.4810715257  TIP3      6091            0.0000000000
     43172      6291  TIP3      H1            -24.1811287388      -13.5171110735      -45.9819349517  TIP3      6091            0.0000000000
     43173      6291  TIP3      H2            -24.7038357469      -12.3942496983      -46.8523000585  TIP3      6091            0.0000000000
     43174      6292  TIP3      OH2           -34.2438225817       -8.6644878989      -40.5871043538  TIP3      6092            0.0000000000
     43175      6292  TIP3      H1            -33.8325730836       -8.7245040855      -41.4733115518  TIP3      6092            0.0000000000
     43176      6292  TIP3      H2            -33.9247108359       -9.4676608669      -40.1460414686  TIP3      6092            0.0000000000
     43177      6293  TIP3      OH2           -27.1481024186       -6.6404467281      -47.0514586006  TIP3      6093            0.0000000000
     43178      6293  TIP3      H1            -27.5782952155       -5.7590873996      -46.9963537644  TIP3      6093            0.0000000000
     43179      6293  TIP3      H2            -27.9181126695       -7.2278139175      -46.9146843884  TIP3      6093            0.0000000000
     43180      6294  TIP3      OH2           -36.5020946456      -10.9811224537      -35.5209467816  TIP3      6094            0.0000000000
     43181      6294  TIP3      H1            -36.5633532263      -10.9955989922      -34.5471508266  TIP3      6094            0.0000000000
     43182      6294  TIP3      H2            -37.4631084268      -11.0082577916      -35.7318128137  TIP3      6094            0.0000000000
     43183      6295  TIP3      OH2           -30.3990258795      -10.6948771952      -33.3433186195  TIP3      6095            0.0000000000
     43184      6295  TIP3      H1            -31.0870020874      -11.3477853676      -33.5502754987  TIP3      6095            0.0000000000
     43185      6295  TIP3      H2            -29.7170405424      -11.2171244707      -32.8863282573  TIP3      6095            0.0000000000
     43186      6296  TIP3      OH2           -25.4078373771       -5.4659300667      -34.7654394138  TIP3      6096            0.0000000000
     43187      6296  TIP3      H1            -26.2249920693       -5.3848658760      -35.2726629145  TIP3      6096            0.0000000000
     43188      6296  TIP3      H2            -25.6935967043       -5.0632309531      -33.9126211640  TIP3      6096            0.0000000000
     43189      6297  TIP3      OH2           -19.9658680092      -13.2521887712      -46.5685662114  TIP3      6097            0.0000000000
     43190      6297  TIP3      H1            -20.6918070258      -13.4691149125      -47.1915272504  TIP3      6097            0.0000000000
     43191      6297  TIP3      H2            -19.9780211651      -12.2758306957      -46.6645330926  TIP3      6097            0.0000000000
     43192      6298  TIP3      OH2           -19.8717303518       -7.4964522185      -34.0873535816  TIP3      6098            0.0000000000
     43193      6298  TIP3      H1            -20.7437199237       -7.2685600844      -34.4914574655  TIP3      6098            0.0000000000
     43194      6298  TIP3      H2            -19.2836735633       -7.5168141231      -34.8802347846  TIP3      6098            0.0000000000
     43195      6299  TIP3      OH2           -21.5162865703       -4.8215742302      -46.0945738992  TIP3      6099            0.0000000000
     43196      6299  TIP3      H1            -22.3732860660       -5.2734890751      -46.1111968147  TIP3      6099            0.0000000000
     43197      6299  TIP3      H2            -21.2787915368       -4.7739341179      -47.0466108518  TIP3      6099            0.0000000000
     43198      6300  TIP3      OH2           -24.6181075916       -9.5722913756      -39.3703898492  TIP3      6100            0.0000000000
     43199      6300  TIP3      H1            -25.5286047132       -9.8117390130      -39.6104333612  TIP3      6100            0.0000000000
     43200      6300  TIP3      H2            -24.1514044702      -10.3302385398      -39.7710652819  TIP3      6100            0.0000000000
     43201      6301  TIP3      OH2           -32.2160318489       -5.3469237475      -42.9867832185  TIP3      6101            0.0000000000
     43202      6301  TIP3      H1            -31.9135775853       -4.4938319856      -43.3726052333  TIP3      6101            0.0000000000
     43203      6301  TIP3      H2            -33.1447985648       -5.3620215747      -43.2549685112  TIP3      6101            0.0000000000
     43204      6302  TIP3      OH2           -35.9693785175      -10.7657835891      -48.4287734505  TIP3      6102            0.0000000000
     43205      6302  TIP3      H1            -35.4380223028      -10.0452393055      -48.0480686174  TIP3      6102            0.0000000000
     43206      6302  TIP3      H2            -36.8730344599      -10.5214085425      -48.1872769086  TIP3      6102            0.0000000000
     43207      6303  TIP3      OH2           -30.7312324011       -7.5932765419      -43.6539070292  TIP3      6103            0.0000000000
     43208      6303  TIP3      H1            -31.2884710743       -6.7890852630      -43.5845601079  TIP3      6103            0.0000000000
     43209      6303  TIP3      H2            -31.2696296148       -8.2647160641      -43.1886245231  TIP3      6103            0.0000000000
     43210      6304  TIP3      OH2           -29.9565170926       -3.6287715045      -36.9087824543  TIP3      6104            0.0000000000
     43211      6304  TIP3      H1            -29.4149587136       -2.8837257519      -37.2487390499  TIP3      6104            0.0000000000
     43212      6304  TIP3      H2            -29.3544197080       -4.0317506986      -36.2494195187  TIP3      6104            0.0000000000
     43213      6305  TIP3      OH2           -31.6842441139       -2.8469748972      -44.0082514455  TIP3      6105            0.0000000000
     43214      6305  TIP3      H1            -32.6471773034       -2.8134309983      -43.8303037955  TIP3      6105            0.0000000000
     43215      6305  TIP3      H2            -31.4208872150       -1.9221333729      -43.8379541194  TIP3      6105            0.0000000000
     43216      6306  TIP3      OH2           -27.0480791274       -7.3713083300      -37.5375521163  TIP3      6106            0.0000000000
     43217      6306  TIP3      H1            -27.3195830331       -7.7967387711      -36.6961671668  TIP3      6106            0.0000000000
     43218      6306  TIP3      H2            -26.3656206421       -7.9684769924      -37.8849977561  TIP3      6106            0.0000000000
     43219      6307  TIP3      OH2           -24.0691247064       -6.4619527407      -48.5208247009  TIP3      6107            0.0000000000
     43220      6307  TIP3      H1            -24.0167992675       -6.9090048195      -47.6489201742  TIP3      6107            0.0000000000
     43221      6307  TIP3      H2            -25.0288813954       -6.5069947621      -48.6138127821  TIP3      6107            0.0000000000
     43222      6308  TIP3      OH2           -23.6686919662       -3.0105536726      -35.2268732532  TIP3      6108            0.0000000000
     43223      6308  TIP3      H1            -24.5374146811       -3.4671174638      -35.2086250056  TIP3      6108            0.0000000000
     43224      6308  TIP3      H2            -23.7094546166       -2.4306645961      -36.0184783299  TIP3      6108            0.0000000000
     43225      6309  TIP3      OH2           -19.6931837827       -1.9406650368      -48.1543911576  TIP3      6109            0.0000000000
     43226      6309  TIP3      H1            -19.0308059013       -1.2657652827      -48.3926689613  TIP3      6109            0.0000000000
     43227      6309  TIP3      H2            -20.3217444344       -1.3719382909      -47.6316163492  TIP3      6109            0.0000000000
     43228      6310  TIP3      OH2           -35.5530681962      -15.5780318442      -35.7699481357  TIP3      6110            0.0000000000
     43229      6310  TIP3      H1            -35.8279336985      -15.1001560934      -34.9588281383  TIP3      6110            0.0000000000
     43230      6310  TIP3      H2            -35.6449507542      -16.5048825641      -35.4993331525  TIP3      6110            0.0000000000
     43231      6311  TIP3      OH2           -23.3911700050       -7.7842123197      -46.2067720318  TIP3      6111            0.0000000000
     43232      6311  TIP3      H1            -23.4729697321       -8.7420656152      -46.3314806970  TIP3      6111            0.0000000000
     43233      6311  TIP3      H2            -22.4383390915       -7.6716088510      -46.3683144369  TIP3      6111            0.0000000000
     43234      6312  TIP3      OH2           -35.9152974184       -3.7363640312      -37.5939159652  TIP3      6112            0.0000000000
     43235      6312  TIP3      H1            -35.2967942294       -4.4668885238      -37.4330639656  TIP3      6112            0.0000000000
     43236      6312  TIP3      H2            -36.1693355231       -3.5192991630      -36.6880332345  TIP3      6112            0.0000000000
     43237      6313  TIP3      OH2           -31.6432569367       -5.9136281484      -47.6048935594  TIP3      6113            0.0000000000
     43238      6313  TIP3      H1            -30.8229933944       -6.2815134307      -47.2347797540  TIP3      6113            0.0000000000
     43239      6313  TIP3      H2            -31.5617940700       -4.9698561765      -47.3127717265  TIP3      6113            0.0000000000
     43240      6314  TIP3      OH2           -34.8617877825       -8.6264814652      -46.9704908292  TIP3      6114            0.0000000000
     43241      6314  TIP3      H1            -35.6527531812       -8.1725226323      -46.6200742176  TIP3      6114            0.0000000000
     43242      6314  TIP3      H2            -34.3788664384       -7.8939914256      -47.3904230097  TIP3      6114            0.0000000000
     43243      6315  TIP3      OH2           -26.9448542567      -15.9587775865      -36.5205375395  TIP3      6115            0.0000000000
     43244      6315  TIP3      H1            -26.1159695035      -15.7972405712      -36.0367401927  TIP3      6115            0.0000000000
     43245      6315  TIP3      H2            -27.2062656838      -16.8592820170      -36.2362430811  TIP3      6115            0.0000000000
     43246      6316  TIP3      OH2           -26.0515055411      -16.6915565441      -45.4259287462  TIP3      6116            0.0000000000
     43247      6316  TIP3      H1            -25.8220320479      -16.0567480442      -46.1324383736  TIP3      6116            0.0000000000
     43248      6316  TIP3      H2            -25.5822259462      -16.3040315482      -44.6525384693  TIP3      6116            0.0000000000
     43249      6317  TIP3      OH2           -28.4922625716       -4.1640322568      -47.2286517811  TIP3      6117            0.0000000000
     43250      6317  TIP3      H1            -29.3478398974       -3.9178262897      -46.8395238672  TIP3      6117            0.0000000000
     43251      6317  TIP3      H2            -28.0707983978       -3.2898740615      -47.3265051371  TIP3      6117            0.0000000000
     43252      6318  TIP3      OH2           -28.8245535944      -14.4814133016      -44.6045862283  TIP3      6118            0.0000000000
     43253      6318  TIP3      H1            -28.2452187229      -13.7188998595      -44.4249217803  TIP3      6118            0.0000000000
     43254      6318  TIP3      H2            -29.1871681164      -14.7062585418      -43.7204628080  TIP3      6118            0.0000000000
     43255      6319  TIP3      OH2           -28.0930761738      -13.8214730495      -35.4229804502  TIP3      6119            0.0000000000
     43256      6319  TIP3      H1            -27.7998784914      -14.1136049802      -34.5330535915  TIP3      6119            0.0000000000
     43257      6319  TIP3      H2            -27.7348169516      -14.5922229722      -35.9385705960  TIP3      6119            0.0000000000
     43258      6320  TIP3      OH2           -28.2327141618      -17.7515984646      -44.1813197605  TIP3      6120            0.0000000000
     43259      6320  TIP3      H1            -28.6358866269      -16.9547716521      -43.7803279499  TIP3      6120            0.0000000000
     43260      6320  TIP3      H2            -27.4097458392      -17.3466074647      -44.5688943168  TIP3      6120            0.0000000000
     43261      6321  TIP3      OH2           -31.2154631962       -3.3484756853      -46.8389466549  TIP3      6121            0.0000000000
     43262      6321  TIP3      H1            -31.0709502530       -2.4622959754      -47.2400090840  TIP3      6121            0.0000000000
     43263      6321  TIP3      H2            -31.4135231621       -3.0922065660      -45.9175839798  TIP3      6121            0.0000000000
     43264      6322  TIP3      OH2           -32.7489746102      -16.4792378675      -46.7715252839  TIP3      6122            0.0000000000
     43265      6322  TIP3      H1            -32.5595796858      -15.6316237898      -46.3199696638  TIP3      6122            0.0000000000
     43266      6322  TIP3      H2            -31.9340337985      -16.9750864589      -46.5671039850  TIP3      6122            0.0000000000
     43267      6323  TIP3      OH2           -22.4288377004      -15.5517925206      -34.6633901974  TIP3      6123            0.0000000000
     43268      6323  TIP3      H1            -23.3675805093      -15.5363264292      -34.9337923965  TIP3      6123            0.0000000000
     43269      6323  TIP3      H2            -21.9991872341      -15.5808239769      -35.5403145951  TIP3      6123            0.0000000000
     43270      6324  TIP3      OH2           -23.5869148454      -11.9974521491      -40.7087635279  TIP3      6124            0.0000000000
     43271      6324  TIP3      H1            -24.3761617367      -12.5563643666      -40.8562171850  TIP3      6124            0.0000000000
     43272      6324  TIP3      H2            -22.9682147568      -12.6102326241      -40.2620766658  TIP3      6124            0.0000000000
     43273      6325  TIP3      OH2           -34.2191716467       -6.0566958281      -48.4267991172  TIP3      6125            0.0000000000
     43274      6325  TIP3      H1            -33.4109514651       -5.7861502675      -47.9559634697  TIP3      6125            0.0000000000
     43275      6325  TIP3      H2            -33.8233771796       -6.7096903316      -49.0332929307  TIP3      6125            0.0000000000
     43276      6326  TIP3      OH2           -35.1858121747      -13.4181784003      -48.5063862928  TIP3      6126            0.0000000000
     43277      6326  TIP3      H1            -35.2723928410      -12.4792196888      -48.2427726950  TIP3      6126            0.0000000000
     43278      6326  TIP3      H2            -35.9295705179      -13.4274669636      -49.1484800459  TIP3      6126            0.0000000000
     43279      6327  TIP3      OH2           -22.6476071617       -2.5258879132      -39.2050586226  TIP3      6127            0.0000000000
     43280      6327  TIP3      H1            -22.6077895452       -1.9619488387      -40.0047767020  TIP3      6127            0.0000000000
     43281      6327  TIP3      H2            -21.6889718938       -2.5851974175      -39.0114452151  TIP3      6127            0.0000000000
     43282      6328  TIP3      OH2           -35.0065882995      -18.4627126803      -40.2434880436  TIP3      6128            0.0000000000
     43283      6328  TIP3      H1            -35.0776791840      -18.6843672206      -41.1953535342  TIP3      6128            0.0000000000
     43284      6328  TIP3      H2            -35.2757383297      -19.3307447057      -39.8539470767  TIP3      6128            0.0000000000
     43285      6329  TIP3      OH2           -36.2689112385       -4.9731603528      -44.6750872290  TIP3      6129            0.0000000000
     43286      6329  TIP3      H1            -37.0632551577       -4.4971155524      -44.4055099742  TIP3      6129            0.0000000000
     43287      6329  TIP3      H2            -35.7525773243       -4.2818818857      -45.1141296871  TIP3      6129            0.0000000000
     43288      6330  TIP3      OH2           -36.7190019956       -1.7929053476      -32.9501668023  TIP3      6130            0.0000000000
     43289      6330  TIP3      H1            -36.1112631283       -1.7640973863      -32.1839276460  TIP3      6130            0.0000000000
     43290      6330  TIP3      H2            -37.0652881456       -2.6817637584      -32.8104926863  TIP3      6130            0.0000000000
     43291      6331  TIP3      OH2           -32.1469554754       -2.6964756510      -31.6312417232  TIP3      6131            0.0000000000
     43292      6331  TIP3      H1            -31.3437285869       -3.1351702342      -31.3100935982  TIP3      6131            0.0000000000
     43293      6331  TIP3      H2            -32.3827581776       -3.2245744802      -32.4120643817  TIP3      6131            0.0000000000
     43294      6332  TIP3      OH2           -28.2695321125       -3.7387141020      -50.1692663431  TIP3      6132            0.0000000000
     43295      6332  TIP3      H1            -28.8777734914       -4.3667436065      -49.7603866828  TIP3      6132            0.0000000000
     43296      6332  TIP3      H2            -27.4384384878       -3.9939692442      -49.7447586466  TIP3      6132            0.0000000000
     43297      6333  TIP3      OH2           -25.9978899662       -4.3195580141      -32.4624564507  TIP3      6133            0.0000000000
     43298      6333  TIP3      H1            -26.3530464688       -5.1919023039      -32.1513499914  TIP3      6133            0.0000000000
     43299      6333  TIP3      H2            -25.1310704344       -4.3150934978      -31.9975381720  TIP3      6133            0.0000000000
     43300      6334  TIP3      OH2           -24.2466141721       -3.8458105761      -48.9528889111  TIP3      6134            0.0000000000
     43301      6334  TIP3      H1            -23.9806013702       -4.7751010418      -48.8219532992  TIP3      6134            0.0000000000
     43302      6334  TIP3      H2            -23.6287982699       -3.4892654812      -49.6241796579  TIP3      6134            0.0000000000
     43303      6335  TIP3      OH2           -36.3667723824       -7.8815024055      -31.5042674981  TIP3      6135            0.0000000000
     43304      6335  TIP3      H1            -35.9307379893       -8.7013273324      -31.2127962909  TIP3      6135            0.0000000000
     43305      6335  TIP3      H2            -37.2107803806       -8.2377935451      -31.8817533579  TIP3      6135            0.0000000000
     43306      6336  TIP3      OH2           -32.2867724451       -8.2530950958      -49.1725829994  TIP3      6136            0.0000000000
     43307      6336  TIP3      H1            -32.1842343636       -8.6300079454      -48.2738949136  TIP3      6136            0.0000000000
     43308      6336  TIP3      H2            -31.4036953008       -7.8810466111      -49.2898340792  TIP3      6136            0.0000000000
     43309      6337  TIP3      OH2           -30.4818355981       -7.9545661202      -32.7419968187  TIP3      6137            0.0000000000
     43310      6337  TIP3      H1            -30.6196180124       -7.4467100102      -33.5755573606  TIP3      6137            0.0000000000
     43311      6337  TIP3      H2            -30.4457211140       -8.8952853206      -33.0142632208  TIP3      6137            0.0000000000
     43312      6338  TIP3      OH2           -24.7773368662       -8.3735521832      -34.9545341246  TIP3      6138            0.0000000000
     43313      6338  TIP3      H1            -23.9086610577       -7.9153487735      -35.0027930774  TIP3      6138            0.0000000000
     43314      6338  TIP3      H2            -25.3028124494       -7.5902792964      -34.6990517947  TIP3      6138            0.0000000000
     43315      6339  TIP3      OH2           -36.0139308191      -11.0295710117      -32.2776409793  TIP3      6139            0.0000000000
     43316      6339  TIP3      H1            -35.2670702669      -11.6444705347      -32.2140899424  TIP3      6139            0.0000000000
     43317      6339  TIP3      H2            -36.2138257403      -10.8492515244      -31.3322495187  TIP3      6139            0.0000000000
     43318      6340  TIP3      OH2           -31.3492606499       -9.6174237010      -47.1101380842  TIP3      6140            0.0000000000
     43319      6340  TIP3      H1            -31.9835405065      -10.1927366794      -46.6489228244  TIP3      6140            0.0000000000
     43320      6340  TIP3      H2            -30.9345588075      -10.2450269597      -47.7392611542  TIP3      6140            0.0000000000
     43321      6341  TIP3      OH2           -31.9999452588      -11.9410693958      -35.4457237541  TIP3      6141            0.0000000000
     43322      6341  TIP3      H1            -32.7620300073      -11.4437231776      -35.0764118189  TIP3      6141            0.0000000000
     43323      6341  TIP3      H2            -31.9503671640      -11.4747728501      -36.2940985023  TIP3      6141            0.0000000000
     43324      6342  TIP3      OH2           -30.0368099229      -11.4566581587      -49.1570035036  TIP3      6142            0.0000000000
     43325      6342  TIP3      H1            -29.8475821227      -11.7298098085      -50.0675018963  TIP3      6142            0.0000000000
     43326      6342  TIP3      H2            -29.1199981502      -11.4836171772      -48.7799417032  TIP3      6142            0.0000000000
     43327      6343  TIP3      OH2           -26.9775620625       -9.1762059163      -32.0218714331  TIP3      6143            0.0000000000
     43328      6343  TIP3      H1            -26.2949102976       -9.6933930147      -32.4865032747  TIP3      6143            0.0000000000
     43329      6343  TIP3      H2            -27.3525275379       -9.8373241942      -31.4170456269  TIP3      6143            0.0000000000
     43330      6344  TIP3      OH2           -21.3224157752       -9.3339003670       50.1789327525  TIP3      6144            0.0000000000
     43331      6344  TIP3      H1            -20.7239544980       -9.7044621984       49.5171140097  TIP3      6144            0.0000000000
     43332      6344  TIP3      H2            -20.9698427353       -8.4265649555       50.2064843988  TIP3      6144            0.0000000000
     43333      6345  TIP3      OH2           -31.5335752957      -14.3347711256      -34.4958789289  TIP3      6145            0.0000000000
     43334      6345  TIP3      H1            -31.4507254096      -15.0392210129      -35.1825511691  TIP3      6145            0.0000000000
     43335      6345  TIP3      H2            -31.6510032868      -13.5252582732      -35.0499391944  TIP3      6145            0.0000000000
     43336      6346  TIP3      OH2           -31.3542406031      -16.3000940139      -36.3701229166  TIP3      6146            0.0000000000
     43337      6346  TIP3      H1            -31.0406477609      -15.8911925801      -37.2070635605  TIP3      6146            0.0000000000
     43338      6346  TIP3      H2            -32.3134546278      -16.4294438108      -36.5286419514  TIP3      6146            0.0000000000
     43339      6347  TIP3      OH2           -29.7285675109      -10.5243695487      -36.7304931481  TIP3      6147            0.0000000000
     43340      6347  TIP3      H1            -29.0856869850      -10.0674867439      -37.2849163625  TIP3      6147            0.0000000000
     43341      6347  TIP3      H2            -30.4927404346       -9.9157615805      -36.8571882982  TIP3      6147            0.0000000000
     43342      6348  TIP3      OH2           -25.2641401458      -13.2532994473      -31.3043551968  TIP3      6148            0.0000000000
     43343      6348  TIP3      H1            -25.1492175749      -14.2140394795      -31.2425570986  TIP3      6148            0.0000000000
     43344      6348  TIP3      H2            -24.4022558726      -12.9768011183      -31.6777179988  TIP3      6148            0.0000000000
     43345      6349  TIP3      OH2           -24.1255185171      -10.0108806139      -33.0244620232  TIP3      6149            0.0000000000
     43346      6349  TIP3      H1            -24.4250058168       -9.4517474623      -33.7709857991  TIP3      6149            0.0000000000
     43347      6349  TIP3      H2            -23.1761063361      -10.0509873067      -33.2244084022  TIP3      6149            0.0000000000
     43348      6350  TIP3      OH2           -33.8790803640      -13.1241498883      -32.9270854498  TIP3      6150            0.0000000000
     43349      6350  TIP3      H1            -34.3068443130      -13.9763844647      -32.7319143614  TIP3      6150            0.0000000000
     43350      6350  TIP3      H2            -33.1109582577      -13.4434272155      -33.4265240865  TIP3      6150            0.0000000000
     43351      6351  TIP3      OH2           -30.5616258868      -18.8609595094      -36.1122549584  TIP3      6151            0.0000000000
     43352      6351  TIP3      H1            -30.8015123582      -17.9113531266      -36.1895904111  TIP3      6151            0.0000000000
     43353      6351  TIP3      H2            -31.2039161683      -19.2723997619      -36.7154757236  TIP3      6151            0.0000000000
     43354      6352  TIP3      OH2           -29.5330712377      -14.4155754394      -32.2686241109  TIP3      6152            0.0000000000
     43355      6352  TIP3      H1            -30.0541377265      -14.8231290339      -31.5465433838  TIP3      6152            0.0000000000
     43356      6352  TIP3      H2            -30.1091106569      -14.6269523953      -33.0277214401  TIP3      6152            0.0000000000
     43357      6353  TIP3      OH2           -26.7387012734      -15.2561181556      -33.2527324493  TIP3      6153            0.0000000000
     43358      6353  TIP3      H1            -27.5440062217      -15.6332511358      -32.8599056912  TIP3      6153            0.0000000000
     43359      6353  TIP3      H2            -26.0706049009      -15.7314718030      -32.7128466233  TIP3      6153            0.0000000000
     43360      6354  TIP3      OH2           -25.2176203852      -16.7099487442      -31.5515405861  TIP3      6154            0.0000000000
     43361      6354  TIP3      H1            -25.1839846105      -17.6868570869      -31.4753344005  TIP3      6154            0.0000000000
     43362      6354  TIP3      H2            -25.3199081706      -16.4334090672      -30.6096209492  TIP3      6154            0.0000000000
     43363      6355  TIP3      OH2           -35.4037975909      -15.5793912579      -32.1671770715  TIP3      6155            0.0000000000
     43364      6355  TIP3      H1            -35.1225496852      -16.4378350744      -32.5289254270  TIP3      6155            0.0000000000
     43365      6355  TIP3      H2            -35.7155893867      -15.8462668788      -31.2746157998  TIP3      6155            0.0000000000
     43366      6356  TIP3      OH2           -30.5717400781      -19.4256707525      -33.1915458681  TIP3      6156            0.0000000000
     43367      6356  TIP3      H1            -29.7317950825      -19.9090581915      -33.2436946721  TIP3      6156            0.0000000000
     43368      6356  TIP3      H2            -30.7375475122      -19.3191044033      -34.1418506911  TIP3      6156            0.0000000000
     43369      6357  TIP3      OH2           -30.2757322409      -17.5237635772      -31.2006010227  TIP3      6157            0.0000000000
     43370      6357  TIP3      H1            -30.4139300802      -18.3195851202      -31.7573656545  TIP3      6157            0.0000000000
     43371      6357  TIP3      H2            -30.9903305319      -16.9040530929      -31.4684048012  TIP3      6157            0.0000000000
     43372      6358  TIP3      OH2           -30.7455836517       -0.9504940807      -47.8795374940  TIP3      6158            0.0000000000
     43373      6358  TIP3      H1            -29.7782642989       -0.8813061997      -47.8041287528  TIP3      6158            0.0000000000
     43374      6358  TIP3      H2            -30.9267950495       -0.5752325248      -48.7533205264  TIP3      6158            0.0000000000
     43375      6359  TIP3      OH2           -36.8032233129       -6.6180777695      -48.6068975710  TIP3      6159            0.0000000000
     43376      6359  TIP3      H1            -35.8681109496       -6.3074385492      -48.5879379290  TIP3      6159            0.0000000000
     43377      6359  TIP3      H2            -36.7457792453       -7.3560868533      -49.2431196987  TIP3      6159            0.0000000000
     43378      6360  TIP3      OH2           -37.4829065474       -1.2634513437      -44.0254379197  TIP3      6160            0.0000000000
     43379      6360  TIP3      H1            -38.3829341596       -0.9279176302      -43.8374202691  TIP3      6160            0.0000000000
     43380      6360  TIP3      H2            -37.2902356607       -1.7623554237      -43.2056924311  TIP3      6160            0.0000000000
     43381      6361  TIP3      OH2           -36.6506977630       -2.7916706844      -41.8333630918  TIP3      6161            0.0000000000
     43382      6361  TIP3      H1            -36.6822749115       -3.7344844606      -41.5945846634  TIP3      6161            0.0000000000
     43383      6361  TIP3      H2            -36.3494093818       -2.3875981357      -41.0004860480  TIP3      6161            0.0000000000
     43384      6362  TIP3      OH2           -19.8563832433       -2.2060921079      -39.1139980620  TIP3      6162            0.0000000000
     43385      6362  TIP3      H1            -19.5946524110       -2.0463025453      -38.1905159727  TIP3      6162            0.0000000000
     43386      6362  TIP3      H2            -19.2580953476       -1.6073302440      -39.5807493602  TIP3      6162            0.0000000000
     43387      6363  TIP3      OH2           -20.4605355568       -2.5266697442      -36.1643207222  TIP3      6163            0.0000000000
     43388      6363  TIP3      H1            -20.8699517292       -3.2827989395      -36.6443114142  TIP3      6163            0.0000000000
     43389      6363  TIP3      H2            -20.1984424063       -2.9775506063      -35.3421089926  TIP3      6163            0.0000000000
     43390      6364  TIP3      OH2           -21.7020033042       -6.7684082886      -31.2758961454  TIP3      6164            0.0000000000
     43391      6364  TIP3      H1            -22.6627490614       -6.7114456828      -31.1127842724  TIP3      6164            0.0000000000
     43392      6364  TIP3      H2            -21.3649548056       -5.9891465244      -30.7831035484  TIP3      6164            0.0000000000
     43393      6365  TIP3      OH2           -20.7298064249       -8.2342162512      -46.1934242220  TIP3      6165            0.0000000000
     43394      6365  TIP3      H1            -19.8515284184       -7.8706407751      -45.9387234103  TIP3      6165            0.0000000000
     43395      6365  TIP3      H2            -20.9943392889       -8.7096095718      -45.3905457778  TIP3      6165            0.0000000000
     43396      6366  TIP3      OH2           -20.1633043921      -10.1872532905      -43.8073814354  TIP3      6166            0.0000000000
     43397      6366  TIP3      H1            -21.0287367286      -10.5865683946      -43.5647917660  TIP3      6166            0.0000000000
     43398      6366  TIP3      H2            -19.7138930916      -10.1524075550      -42.9376212103  TIP3      6166            0.0000000000
     43399      6367  TIP3      OH2           -20.5635164651       -7.4375408659      -39.1669021467  TIP3      6167            0.0000000000
     43400      6367  TIP3      H1            -19.8992912927       -8.1222286752      -39.3980674819  TIP3      6167            0.0000000000
     43401      6367  TIP3      H2            -20.1894281064       -6.6490993721      -39.5924869083  TIP3      6167            0.0000000000
     43402      6368  TIP3      OH2           -21.8756579433       -4.7358395027      -36.8340694506  TIP3      6168            0.0000000000
     43403      6368  TIP3      H1            -22.5381227808       -4.3186253239      -36.2525395351  TIP3      6168            0.0000000000
     43404      6368  TIP3      H2            -22.3965328874       -4.9630503126      -37.6344746015  TIP3      6168            0.0000000000
     43405      6369  TIP3      OH2           -19.6898471497      -10.3918593738      -47.6825799230  TIP3      6169            0.0000000000
     43406      6369  TIP3      H1            -20.3564121649      -10.1533483999      -48.3576294823  TIP3      6169            0.0000000000
     43407      6369  TIP3      H2            -19.7799385683       -9.6280773356      -47.0780512002  TIP3      6169            0.0000000000
     43408      6370  TIP3      OH2           -22.0850092485      -13.4801352005      -48.4065529356  TIP3      6170            0.0000000000
     43409      6370  TIP3      H1            -22.2581474616      -12.8033711463      -49.0814122679  TIP3      6170            0.0000000000
     43410      6370  TIP3      H2            -21.6770064344      -14.1481253532      -48.9790358767  TIP3      6170            0.0000000000
     43411      6371  TIP3      OH2           -22.3179231786      -11.6185219025      -43.0604586929  TIP3      6171            0.0000000000
     43412      6371  TIP3      H1            -22.4415471286      -12.5537901056      -43.2921154298  TIP3      6171            0.0000000000
     43413      6371  TIP3      H2            -22.6090592595      -11.6365647624      -42.1271109885  TIP3      6171            0.0000000000
     43414      6372  TIP3      OH2           -36.8490119035       -8.9073296888      -39.6563492248  TIP3      6172            0.0000000000
     43415      6372  TIP3      H1            -36.8456657328       -9.4899660914      -40.4451203008  TIP3      6172            0.0000000000
     43416      6372  TIP3      H2            -35.9963434986       -9.1480868221      -39.2481298522  TIP3      6172            0.0000000000
     43417      6373  TIP3      OH2           -21.2570967474       -9.7831140637      -33.6796822588  TIP3      6173            0.0000000000
     43418      6373  TIP3      H1            -20.8103597018      -10.6483831250      -33.5589921589  TIP3      6173            0.0000000000
     43419      6373  TIP3      H2            -20.5409630857       -9.1469853178      -33.9168675587  TIP3      6173            0.0000000000
     43420      6374  TIP3      OH2           -20.2257091096      -12.2568587165      -33.3774193187  TIP3      6174            0.0000000000
     43421      6374  TIP3      H1            -21.0863417478      -12.5404385803      -33.0092930625  TIP3      6174            0.0000000000
     43422      6374  TIP3      H2            -19.6255393695      -13.0158564540      -33.2123280261  TIP3      6174            0.0000000000
     43423      6375  TIP3      OH2           -22.2805034614      -15.7691072711      -50.1047406410  TIP3      6175            0.0000000000
     43424      6375  TIP3      H1            -21.7190333885      -16.1973441216      -49.4333191975  TIP3      6175            0.0000000000
     43425      6375  TIP3      H2            -23.1646158985      -16.0088616711      -49.8119275271  TIP3      6175            0.0000000000
     43426      6376  TIP3      OH2           -22.8593809749      -14.1129029467      -44.9821555647  TIP3      6176            0.0000000000
     43427      6376  TIP3      H1            -22.6449637299      -15.0437034897      -44.7482308899  TIP3      6176            0.0000000000
     43428      6376  TIP3      H2            -21.9905525416      -13.8652773054      -45.3297116342  TIP3      6176            0.0000000000
     43429      6377  TIP3      OH2           -21.8403682574      -13.7388525730      -39.4720128484  TIP3      6177            0.0000000000
     43430      6377  TIP3      H1            -20.8698005476      -13.5665888813      -39.4051924888  TIP3      6177            0.0000000000
     43431      6377  TIP3      H2            -22.1113874878      -13.6136322560      -38.5486955088  TIP3      6177            0.0000000000
     43432      6378  TIP3      OH2           -21.7893271292      -12.8625053603      -36.8726277159  TIP3      6178            0.0000000000
     43433      6378  TIP3      H1            -22.5457348052      -12.5345931351      -36.3489598439  TIP3      6178            0.0000000000
     43434      6378  TIP3      H2            -21.3066665147      -12.0373462179      -37.1134407589  TIP3      6178            0.0000000000
     43435      6379  TIP3      OH2           -37.2003005271      -14.6266212171      -33.9039836624  TIP3      6179            0.0000000000
     43436      6379  TIP3      H1            -36.4789031239      -14.3988068637      -33.2805169924  TIP3      6179            0.0000000000
     43437      6379  TIP3      H2            -37.1914490383      -15.6010131928      -33.8594748898  TIP3      6179            0.0000000000
     43438      6380  TIP3      OH2           -19.7710390609      -18.8193800994      -31.6923226396  TIP3      6180            0.0000000000
     43439      6380  TIP3      H1            -19.2610201849      -19.4413133136      -32.2483627531  TIP3      6180            0.0000000000
     43440      6380  TIP3      H2            -19.8160158926      -18.0120526550      -32.2619158231  TIP3      6180            0.0000000000
     43441      6381  TIP3      OH2           -21.9654582839      -16.6561718626      -44.6609733559  TIP3      6181            0.0000000000
     43442      6381  TIP3      H1            -21.5819415942      -17.1197477325      -43.8828570756  TIP3      6181            0.0000000000
     43443      6381  TIP3      H2            -22.4616996663      -17.3808480576      -45.0761898736  TIP3      6181            0.0000000000
     43444      6382  TIP3      OH2           -36.5135377162      -16.1971323546      -40.0247979920  TIP3      6182            0.0000000000
     43445      6382  TIP3      H1            -35.9660335182      -17.0023860799      -39.8987042201  TIP3      6182            0.0000000000
     43446      6382  TIP3      H2            -35.8886588801      -15.4774123315      -39.8343381972  TIP3      6182            0.0000000000
     43447      6383  TIP3      OH2           -37.4964253807      -13.1360236596      -39.2228591243  TIP3      6183            0.0000000000
     43448      6383  TIP3      H1            -36.7882790712      -13.1340157593      -39.8881368842  TIP3      6183            0.0000000000
     43449      6383  TIP3      H2            -37.3336697296      -12.3169415949      -38.7431247545  TIP3      6183            0.0000000000
     43450      6384  TIP3      OH2           -20.5665042065      -16.7923502405      -33.1957789639  TIP3      6184            0.0000000000
     43451      6384  TIP3      H1            -21.2652833433      -16.1530733865      -33.4338674792  TIP3      6184            0.0000000000
     43452      6384  TIP3      H2            -20.4958484648      -17.2137426102      -34.0785000558  TIP3      6184            0.0000000000
     43453      6385  TIP3      OH2           -20.1710021565      -16.6047162100      -48.2650640004  TIP3      6185            0.0000000000
     43454      6385  TIP3      H1            -19.7308019017      -17.0727510701      -48.9867631795  TIP3      6185            0.0000000000
     43455      6385  TIP3      H2            -19.4483826772      -15.9891793667      -48.0026948927  TIP3      6185            0.0000000000
     43456      6386  TIP3      OH2           -37.3877253196      -16.7792194708      -45.2287053861  TIP3      6186            0.0000000000
     43457      6386  TIP3      H1            -38.3645944983      -16.7448695195      -45.2176574635  TIP3      6186            0.0000000000
     43458      6386  TIP3      H2            -37.2594030266      -16.3223844079      -46.0907775090  TIP3      6186            0.0000000000
     43459      6387  TIP3      OH2           -23.0969089647       -2.0328294034      -43.2050850587  TIP3      6187            0.0000000000
     43460      6387  TIP3      H1            -22.3632333955       -2.2251070204      -43.8275562180  TIP3      6187            0.0000000000
     43461      6387  TIP3      H2            -22.7030247495       -1.4195484356      -42.5575007921  TIP3      6187            0.0000000000
     43462      6388  TIP3      OH2           -37.6588473477      -18.5649433303      -36.8955673843  TIP3      6188            0.0000000000
     43463      6388  TIP3      H1            -38.4740330959      -18.3323010417      -36.4202329724  TIP3      6188            0.0000000000
     43464      6388  TIP3      H2            -37.7829390577      -18.0928573819      -37.7266034740  TIP3      6188            0.0000000000
     43465      6389  TIP3      OH2           -35.7029051520       -5.0030378115      -32.8707164012  TIP3      6189            0.0000000000
     43466      6389  TIP3      H1            -36.5525913574       -5.1086292078      -33.3191718714  TIP3      6189            0.0000000000
     43467      6389  TIP3      H2            -35.7630484726       -5.5389367680      -32.0678870594  TIP3      6189            0.0000000000
     43468      6390  TIP3      OH2           -32.6674487068       -3.5741953995      -36.3350695789  TIP3      6190            0.0000000000
     43469      6390  TIP3      H1            -32.6671113574       -2.6731053672      -36.7352138429  TIP3      6190            0.0000000000
     43470      6390  TIP3      H2            -31.7118616557       -3.7662679286      -36.3116957102  TIP3      6190            0.0000000000
     43471      6391  TIP3      OH2           -28.6143999295       -2.4800082387      -33.7855925954  TIP3      6191            0.0000000000
     43472      6391  TIP3      H1            -28.5426942537       -2.7301126954      -32.8425119257  TIP3      6191            0.0000000000
     43473      6391  TIP3      H2            -27.7573509368       -2.0204760987      -33.9207990288  TIP3      6191            0.0000000000
     43474      6392  TIP3      OH2           -26.4423059226       -0.9276338369      -34.1724148478  TIP3      6192            0.0000000000
     43475      6392  TIP3      H1            -25.6862458068       -1.3535078132      -34.6005296681  TIP3      6192            0.0000000000
     43476      6392  TIP3      H2            -26.0417402104       -0.5751361342      -33.3446725591  TIP3      6192            0.0000000000
     43477      6393  TIP3      OH2           -21.1640564957      -18.7786315611      -35.3027743742  TIP3      6193            0.0000000000
     43478      6393  TIP3      H1            -22.0017474325      -18.5339046591      -35.7214202191  TIP3      6193            0.0000000000
     43479      6393  TIP3      H2            -21.0376599024      -19.6816252130      -35.6704239805  TIP3      6193            0.0000000000
     43480      6394  TIP3      OH2           -35.1291563555       -0.4089361741      -36.5158613752  TIP3      6194            0.0000000000
     43481      6394  TIP3      H1            -36.0090920316       -0.1125447438      -36.8402824560  TIP3      6194            0.0000000000
     43482      6394  TIP3      H2            -35.3436448943       -0.5994696915      -35.5914730190  TIP3      6194            0.0000000000
     43483      6395  TIP3      OH2           -32.7774220915       -1.1116909650      -37.5779039617  TIP3      6195            0.0000000000
     43484      6395  TIP3      H1            -33.7154919203       -0.9415989849      -37.3059342596  TIP3      6195            0.0000000000
     43485      6395  TIP3      H2            -32.7301528931       -0.4910281853      -38.3256659861  TIP3      6195            0.0000000000
     43486      6396  TIP3      OH2           -28.3846737668       -1.5158489662      -38.1806077200  TIP3      6196            0.0000000000
     43487      6396  TIP3      H1            -28.6672621188       -0.8922149798      -38.8613004075  TIP3      6196            0.0000000000
     43488      6396  TIP3      H2            -27.9951349654       -0.8746430274      -37.5432901468  TIP3      6196            0.0000000000
     43489      6397  TIP3      OH2           -26.1446428874       -2.7748769088      -36.8964910468  TIP3      6197            0.0000000000
     43490      6397  TIP3      H1            -26.8025460459       -2.4157759964      -37.5263809687  TIP3      6197            0.0000000000
     43491      6397  TIP3      H2            -25.3903653736       -2.1972222040      -37.1254673890  TIP3      6197            0.0000000000
     43492      6398  TIP3      OH2           -23.6686427734       -1.0809386016      -37.2460571947  TIP3      6198            0.0000000000
     43493      6398  TIP3      H1            -23.5192728990       -0.1870597219      -37.6077058776  TIP3      6198            0.0000000000
     43494      6398  TIP3      H2            -23.2465089580       -1.6042912772      -37.9691957470  TIP3      6198            0.0000000000
     43495      6399  TIP3      OH2           -35.5068317131       -1.9136995494      -39.5281710127  TIP3      6199            0.0000000000
     43496      6399  TIP3      H1            -35.7570346690       -2.4192140292      -38.7201900916  TIP3      6199            0.0000000000
     43497      6399  TIP3      H2            -34.6762562447       -2.3731525039      -39.7972557067  TIP3      6199            0.0000000000
     43498      6400  TIP3      OH2           -33.5749048569       -3.2416504265      -40.7714649885  TIP3      6200            0.0000000000
     43499      6400  TIP3      H1            -33.7846782508       -4.1834525972      -40.6640056902  TIP3      6200            0.0000000000
     43500      6400  TIP3      H2            -32.6889708190       -3.2200550533      -40.3457869047  TIP3      6200            0.0000000000
     43501      6401  TIP3      OH2           -31.2718835452       -3.4917344619      -39.2999981490  TIP3      6201            0.0000000000
     43502      6401  TIP3      H1            -30.8809239405       -4.3629824702      -39.4748257584  TIP3      6201            0.0000000000
     43503      6401  TIP3      H2            -31.0930239747       -3.4544663361      -38.3287033880  TIP3      6201            0.0000000000
     43504      6402  TIP3      OH2           -27.9542473929      -17.6059706095      -40.8471749847  TIP3      6202            0.0000000000
     43505      6402  TIP3      H1            -28.7633492888      -18.1503509413      -40.7025595083  TIP3      6202            0.0000000000
     43506      6402  TIP3      H2            -27.6674049036      -17.9566874413      -41.6959907345  TIP3      6202            0.0000000000
     43507      6403  TIP3      OH2           -22.4819512463      -19.4832795969      -41.0196448383  TIP3      6203            0.0000000000
     43508      6403  TIP3      H1            -21.8466842883      -18.8653863746      -41.4624131868  TIP3      6203            0.0000000000
     43509      6403  TIP3      H2            -23.3449003829      -19.1312581718      -41.3582824800  TIP3      6203            0.0000000000
     43510      6404  TIP3      OH2           -20.8540722715      -18.0708875468      -42.6038156519  TIP3      6204            0.0000000000
     43511      6404  TIP3      H1            -20.2268549290      -18.6540042940      -43.0949918970  TIP3      6204            0.0000000000
     43512      6404  TIP3      H2            -20.2735729904      -17.3039775793      -42.3828793582  TIP3      6204            0.0000000000
     43513      6405  TIP3      OH2           -35.0951333823      -18.9378783706      -43.0421600597  TIP3      6205            0.0000000000
     43514      6405  TIP3      H1            -35.9297402628      -19.0766256867      -43.5399308886  TIP3      6205            0.0000000000
     43515      6405  TIP3      H2            -34.6277845793      -19.7795326158      -43.2356561714  TIP3      6205            0.0000000000
     43516      6406  TIP3      OH2           -37.0196625401      -18.6659036470      -47.6630883237  TIP3      6206            0.0000000000
     43517      6406  TIP3      H1            -36.3519556517      -18.0784702843      -48.0951214123  TIP3      6206            0.0000000000
     43518      6406  TIP3      H2            -36.9930403939      -18.3377624689      -46.7500704854  TIP3      6206            0.0000000000
     43519      6407  TIP3      OH2           -30.9487614100      -19.3739121201      -43.1505308121  TIP3      6207            0.0000000000
     43520      6407  TIP3      H1            -30.2879856796      -18.9230568159      -43.6773112932  TIP3      6207            0.0000000000
     43521      6407  TIP3      H2            -30.6647377081      -19.1692487165      -42.2432374772  TIP3      6207            0.0000000000
     43522      6408  TIP3      OH2           -24.9416684981      -18.8756688578      -41.9726617149  TIP3      6208            0.0000000000
     43523      6408  TIP3      H1            -25.4590345370      -18.7710918521      -42.7740056467  TIP3      6208            0.0000000000
     43524      6408  TIP3      H2            -25.4773669210      -19.5524293647      -41.4923278619  TIP3      6208            0.0000000000
     43525      6409  TIP3      OH2           -23.7090646676      -18.9323692152      -45.8309399675  TIP3      6209            0.0000000000
     43526      6409  TIP3      H1            -24.4841930380      -18.3716160207      -45.9605325696  TIP3      6209            0.0000000000
     43527      6409  TIP3      H2            -24.0876225548      -19.6368368377      -45.2670799747  TIP3      6209            0.0000000000
     43528      6410  TIP3      OH2           -36.4074180019       -2.3931850854      -46.8676151921  TIP3      6210            0.0000000000
     43529      6410  TIP3      H1            -37.3230358338       -2.5783039385      -46.6120690172  TIP3      6210            0.0000000000
     43530      6410  TIP3      H2            -36.4205109953       -1.4235126062      -46.7655898035  TIP3      6210            0.0000000000
     43531      6411  TIP3      OH2           -34.7790734134      -17.4207673218      -48.6222112086  TIP3      6211            0.0000000000
     43532      6411  TIP3      H1            -34.1846686572      -18.0828240417      -49.0185529146  TIP3      6211            0.0000000000
     43533      6411  TIP3      H2            -34.1578341464      -17.0206901354      -47.9879629674  TIP3      6211            0.0000000000
     43534      6412  TIP3      OH2           -29.5473535045      -16.8080403442      -46.4777959632  TIP3      6212            0.0000000000
     43535      6412  TIP3      H1            -29.2267447693      -17.4295994483      -45.8038312145  TIP3      6212            0.0000000000
     43536      6412  TIP3      H2            -29.5289912877      -15.9669743067      -45.9800690849  TIP3      6212            0.0000000000
     43537      6413  TIP3      OH2           -27.9457122873       -1.6834411829      -48.2168074487  TIP3      6213            0.0000000000
     43538      6413  TIP3      H1            -26.9707737549       -1.4814226767      -48.2355578081  TIP3      6213            0.0000000000
     43539      6413  TIP3      H2            -28.0246521514       -2.0968018319      -49.0904547372  TIP3      6213            0.0000000000
     43540      6414  TIP3      OH2           -21.2839270010       -2.3978989087      -45.0006001929  TIP3      6214            0.0000000000
     43541      6414  TIP3      H1            -21.4225278869       -3.3069531835      -45.3570625278  TIP3      6214            0.0000000000
     43542      6414  TIP3      H2            -21.5420529702       -1.8451478436      -45.7605799219  TIP3      6214            0.0000000000
     43543      6415  TIP3      OH2           -35.9241645119      -18.1709170530      -33.5093546432  TIP3      6215            0.0000000000
     43544      6415  TIP3      H1            -36.3617070288      -19.0555657201      -33.4934733352  TIP3      6215            0.0000000000
     43545      6415  TIP3      H2            -35.0810420606      -18.3538477573      -33.0608096864  TIP3      6215            0.0000000000
     43546      6416  TIP3      OH2           -33.5383210534      -18.6552690223      -31.7916695952  TIP3      6216            0.0000000000
     43547      6416  TIP3      H1            -32.6241840878      -18.8380824324      -32.0781856491  TIP3      6216            0.0000000000
     43548      6416  TIP3      H2            -33.8010846262      -19.5134172671      -31.4050923236  TIP3      6216            0.0000000000
     43549      6417  TIP3      OH2           -33.7958422401       -1.4671724135      -48.6136529975  TIP3      6217            0.0000000000
     43550      6417  TIP3      H1            -34.5042649781       -1.8241171837      -48.0490822480  TIP3      6217            0.0000000000
     43551      6417  TIP3      H2            -33.0978626119       -2.1350317947      -48.5257181915  TIP3      6217            0.0000000000
     43552      6418  TIP3      OH2           -24.7285621577      -19.4460286324      -31.6879040283  TIP3      6218            0.0000000000
     43553      6418  TIP3      H1            -24.4916813437      -20.3749245099      -31.5374256517  TIP3      6218            0.0000000000
     43554      6418  TIP3      H2            -23.9266121791      -19.1714034301      -32.1917085454  TIP3      6218            0.0000000000
     43555      6419  TIP3      OH2           -21.8912869839       -3.4571260350      -33.3394628117  TIP3      6219            0.0000000000
     43556      6419  TIP3      H1            -22.6268388919       -3.4550710480      -34.0017767034  TIP3      6219            0.0000000000
     43557      6419  TIP3      H2            -22.0510867225       -2.6100462698      -32.8923829443  TIP3      6219            0.0000000000
     43558      6420  TIP3      OH2            -7.2508621179       -9.3887324000      -43.0315402110  TIP3      6220            0.0000000000
     43559      6420  TIP3      H1             -7.2898122879       -8.5064460934      -42.6221356806  TIP3      6220            0.0000000000
     43560      6420  TIP3      H2             -8.0068643542       -9.3233376650      -43.6396266834  TIP3      6220            0.0000000000
     43561      6421  TIP3      OH2            -8.3899406763      -10.6561375866      -39.8754523329  TIP3      6221            0.0000000000
     43562      6421  TIP3      H1             -8.4040708676      -11.0156755872      -38.9606852441  TIP3      6221            0.0000000000
     43563      6421  TIP3      H2             -9.1038118913      -11.1555040614      -40.3234133012  TIP3      6221            0.0000000000
     43564      6422  TIP3      OH2           -16.6027061578      -10.6938678916      -38.2928864998  TIP3      6222            0.0000000000
     43565      6422  TIP3      H1            -16.5170611489      -11.3340052858      -37.5703764471  TIP3      6222            0.0000000000
     43566      6422  TIP3      H2            -15.7406617728      -10.2479859237      -38.2747397468  TIP3      6222            0.0000000000
     43567      6423  TIP3      OH2            -5.3922454895       -7.5322281697      -41.2189126196  TIP3      6223            0.0000000000
     43568      6423  TIP3      H1             -5.5758454286       -8.2758773317      -40.6146800480  TIP3      6223            0.0000000000
     43569      6423  TIP3      H2             -5.0602710703       -6.8608707413      -40.6042755057  TIP3      6223            0.0000000000
     43570      6424  TIP3      OH2           -15.2657812488       -5.9840549593      -39.9027743196  TIP3      6224            0.0000000000
     43571      6424  TIP3      H1            -15.6196390810       -6.8848970150      -40.0475360280  TIP3      6224            0.0000000000
     43572      6424  TIP3      H2            -14.3276712130       -6.1734566405      -40.1094592821  TIP3      6224            0.0000000000
     43573      6425  TIP3      OH2           -18.6951131403      -12.6840058679      -44.1796384994  TIP3      6225            0.0000000000
     43574      6425  TIP3      H1            -19.0387418966      -11.7869139125      -44.0162078575  TIP3      6225            0.0000000000
     43575      6425  TIP3      H2            -18.9457562235      -12.8041779760      -45.1153259263  TIP3      6225            0.0000000000
     43576      6426  TIP3      OH2           -18.1651711411      -10.3134385641      -41.6600059420  TIP3      6226            0.0000000000
     43577      6426  TIP3      H1            -17.7310773039      -11.1930720420      -41.5659959124  TIP3      6226            0.0000000000
     43578      6426  TIP3      H2            -17.5570778437       -9.8022389634      -42.2119086068  TIP3      6226            0.0000000000
     43579      6427  TIP3      OH2            -7.7413227005       -2.0005101756      -41.3157876472  TIP3      6227            0.0000000000
     43580      6427  TIP3      H1             -7.0314244822       -2.5887880165      -41.6807768973  TIP3      6227            0.0000000000
     43581      6427  TIP3      H2             -8.2096932010       -2.6725262539      -40.8077691795  TIP3      6227            0.0000000000
     43582      6428  TIP3      OH2           -10.3653855590       -7.9404372767      -38.8676746776  TIP3      6228            0.0000000000
     43583      6428  TIP3      H1            -10.0742836481       -8.3265286467      -39.7050047751  TIP3      6228            0.0000000000
     43584      6428  TIP3      H2             -9.4863110064       -7.6657160708      -38.5211544062  TIP3      6228            0.0000000000
     43585      6429  TIP3      OH2            -1.8186506854      -16.5177834492      -38.8147741301  TIP3      6229            0.0000000000
     43586      6429  TIP3      H1             -1.8015072788      -15.9724216885      -37.9983397343  TIP3      6229            0.0000000000
     43587      6429  TIP3      H2             -1.0032798847      -16.2088490031      -39.2313921478  TIP3      6229            0.0000000000
     43588      6430  TIP3      OH2            -6.8417880383      -13.4486436597      -38.6147991473  TIP3      6230            0.0000000000
     43589      6430  TIP3      H1             -6.5725717973      -14.3825675315      -38.7234571981  TIP3      6230            0.0000000000
     43590      6430  TIP3      H2             -7.1968529572      -13.3074702169      -39.5115680062  TIP3      6230            0.0000000000
     43591      6431  TIP3      OH2           -13.8822304139      -15.7167397480      -42.0247252477  TIP3      6231            0.0000000000
     43592      6431  TIP3      H1            -13.7555362913      -14.8884574220      -42.5453723741  TIP3      6231            0.0000000000
     43593      6431  TIP3      H2            -14.3763596212      -16.2370065015      -42.6872436531  TIP3      6231            0.0000000000
     43594      6432  TIP3      OH2            -6.3571900410      -15.3409015846      -43.3562828242  TIP3      6232            0.0000000000
     43595      6432  TIP3      H1             -5.8994628339      -15.6866570123      -42.5488522400  TIP3      6232            0.0000000000
     43596      6432  TIP3      H2             -5.7103507133      -14.6857018804      -43.6609461337  TIP3      6232            0.0000000000
     43597      6433  TIP3      OH2           -17.4868204078      -12.8606817166      -41.0637750511  TIP3      6233            0.0000000000
     43598      6433  TIP3      H1            -16.8845265013      -13.3507546288      -40.4805473746  TIP3      6233            0.0000000000
     43599      6433  TIP3      H2            -17.1774394431      -13.1872093021      -41.9278171039  TIP3      6233            0.0000000000
     43600      6434  TIP3      OH2           -12.4557746317      -11.4265067075      -41.4949229334  TIP3      6234            0.0000000000
     43601      6434  TIP3      H1            -11.5400451138      -11.7444462119      -41.3980325917  TIP3      6234            0.0000000000
     43602      6434  TIP3      H2            -12.9005229974      -12.2303539450      -41.8160147463  TIP3      6234            0.0000000000
     43603      6435  TIP3      OH2            -1.6218646931      -15.0406049382      -36.5851761731  TIP3      6235            0.0000000000
     43604      6435  TIP3      H1             -1.9610718895      -14.1424176828      -36.8222322109  TIP3      6235            0.0000000000
     43605      6435  TIP3      H2             -1.2945640700      -14.8473480330      -35.6992996013  TIP3      6235            0.0000000000
     43606      6436  TIP3      OH2           -14.7686239761      -16.3982050624      -37.8220546502  TIP3      6236            0.0000000000
     43607      6436  TIP3      H1            -15.2914799388      -16.0036188263      -38.5463050773  TIP3      6236            0.0000000000
     43608      6436  TIP3      H2            -15.4215403862      -16.3174430245      -37.1021185724  TIP3      6236            0.0000000000
     43609      6437  TIP3      OH2            -8.0013681933       -6.8423302297      -44.2353271562  TIP3      6237            0.0000000000
     43610      6437  TIP3      H1             -8.0912661806       -6.9489122302      -45.1998805837  TIP3      6237            0.0000000000
     43611      6437  TIP3      H2             -8.1978119267       -5.8840301004      -44.1391648119  TIP3      6237            0.0000000000
     43612      6438  TIP3      OH2           -12.8075074478       -8.7027263903      -37.8617613694  TIP3      6238            0.0000000000
     43613      6438  TIP3      H1            -13.3292810550       -7.9177306986      -37.5717939839  TIP3      6238            0.0000000000
     43614      6438  TIP3      H2            -12.0523548118       -8.2676597459      -38.3259355978  TIP3      6238            0.0000000000
     43615      6439  TIP3      OH2            -4.6167911588      -15.7905297007      -41.3398550209  TIP3      6239            0.0000000000
     43616      6439  TIP3      H1             -4.4980364413      -16.6135337135      -40.8485361528  TIP3      6239            0.0000000000
     43617      6439  TIP3      H2             -3.7385847072      -15.4005846590      -41.2314454486  TIP3      6239            0.0000000000
     43618      6440  TIP3      OH2           -15.3902756936      -14.5436523994      -39.9337386743  TIP3      6240            0.0000000000
     43619      6440  TIP3      H1            -14.8236210282      -13.8802890674      -39.4983849159  TIP3      6240            0.0000000000
     43620      6440  TIP3      H2            -14.8062451844      -14.8647515599      -40.6587938604  TIP3      6240            0.0000000000
     43621      6441  TIP3      OH2           -14.0044578616       -6.4998691997      -36.8440340463  TIP3      6241            0.0000000000
     43622      6441  TIP3      H1            -14.1030164988       -5.7086637752      -37.3850798610  TIP3      6241            0.0000000000
     43623      6441  TIP3      H2            -14.9047054793       -6.5474029519      -36.4359455044  TIP3      6241            0.0000000000
     43624      6442  TIP3      OH2           -18.1422452668       -7.2512722258      -46.0138361978  TIP3      6242            0.0000000000
     43625      6442  TIP3      H1            -18.0712685499       -6.6296083616      -46.7833153027  TIP3      6242            0.0000000000
     43626      6442  TIP3      H2            -18.0267579658       -6.6419647863      -45.2621804834  TIP3      6242            0.0000000000
     43627      6443  TIP3      OH2            -4.4047424141       -5.4430309937      -39.1341961082  TIP3      6243            0.0000000000
     43628      6443  TIP3      H1             -5.3418005072       -5.2201643987      -38.9511006978  TIP3      6243            0.0000000000
     43629      6443  TIP3      H2             -4.1418516010       -4.5997618531      -39.5421998461  TIP3      6243            0.0000000000
     43630      6444  TIP3      OH2            -4.5566553774      -16.8618825485      -37.9442290050  TIP3      6244            0.0000000000
     43631      6444  TIP3      H1             -5.2317101901      -16.4563727600      -38.5140569749  TIP3      6244            0.0000000000
     43632      6444  TIP3      H2             -3.7625278894      -16.7091874699      -38.4959623004  TIP3      6244            0.0000000000
     43633      6445  TIP3      OH2           -11.3169326269      -18.9395159859      -40.3549871213  TIP3      6245            0.0000000000
     43634      6445  TIP3      H1            -11.5833087714      -19.8687176428      -40.4364792831  TIP3      6245            0.0000000000
     43635      6445  TIP3      H2            -12.2037405296      -18.5413098263      -40.1590995506  TIP3      6245            0.0000000000
     43636      6446  TIP3      OH2            -6.0033610631       -3.6955942876      -42.3749688238  TIP3      6246            0.0000000000
     43637      6446  TIP3      H1             -5.8496876973       -4.5039038303      -42.9054140988  TIP3      6246            0.0000000000
     43638      6446  TIP3      H2             -5.2463585836       -3.1460862487      -42.6920514174  TIP3      6246            0.0000000000
     43639      6447  TIP3      OH2            -4.9280317471       -5.8560823762      -43.9349898996  TIP3      6247            0.0000000000
     43640      6447  TIP3      H1             -5.0040044108       -6.5431763435      -44.6344491634  TIP3      6247            0.0000000000
     43641      6447  TIP3      H2             -4.9929321054       -6.4154693149      -43.1444727780  TIP3      6247            0.0000000000
     43642      6448  TIP3      OH2            -3.4495488749       -7.0519166263      -35.3709045661  TIP3      6248            0.0000000000
     43643      6448  TIP3      H1             -3.2832281628       -7.7425898651      -36.0557086840  TIP3      6248            0.0000000000
     43644      6448  TIP3      H2             -3.3198492280       -6.2514209764      -35.9147479413  TIP3      6248            0.0000000000
     43645      6449  TIP3      OH2            -8.9046644553      -10.1817153494      -45.7200836768  TIP3      6249            0.0000000000
     43646      6449  TIP3      H1             -9.3865516467       -9.3661116953      -45.9661282117  TIP3      6249            0.0000000000
     43647      6449  TIP3      H2             -8.0536502268      -10.1158257130      -46.2175365439  TIP3      6249            0.0000000000
     43648      6450  TIP3      OH2            -8.2907088700      -11.5159587170      -48.6182497553  TIP3      6250            0.0000000000
     43649      6450  TIP3      H1             -7.5495972501      -11.1265241813      -48.0901764714  TIP3      6250            0.0000000000
     43650      6450  TIP3      H2             -7.9356349835      -12.4252963889      -48.7362956640  TIP3      6250            0.0000000000
     43651      6451  TIP3      OH2            -1.4196640568      -10.6589781737      -37.5785371751  TIP3      6251            0.0000000000
     43652      6451  TIP3      H1             -2.0280179814       -9.9087415475      -37.4465612111  TIP3      6251            0.0000000000
     43653      6451  TIP3      H2             -0.7681206565      -10.2375883782      -38.1714098850  TIP3      6251            0.0000000000
     43654      6452  TIP3      OH2            -5.1792996127      -10.2531755344      -44.5690260414  TIP3      6252            0.0000000000
     43655      6452  TIP3      H1             -5.8622182412       -9.8723433729      -43.9636920461  TIP3      6252            0.0000000000
     43656      6452  TIP3      H2             -4.5501057321      -10.6670980649      -43.9350068446  TIP3      6252            0.0000000000
     43657      6453  TIP3      OH2            -5.1288707561      -11.7287591857      -35.6386981330  TIP3      6253            0.0000000000
     43658      6453  TIP3      H1             -5.4059371019      -10.8804574506      -35.2577339280  TIP3      6253            0.0000000000
     43659      6453  TIP3      H2             -5.7330375808      -11.7429482194      -36.4031142928  TIP3      6253            0.0000000000
     43660      6454  TIP3      OH2           -13.8409510606       -9.4904153627      -42.7725144042  TIP3      6254            0.0000000000
     43661      6454  TIP3      H1            -14.0518722538       -9.7216068918      -43.7092086278  TIP3      6254            0.0000000000
     43662      6454  TIP3      H2            -13.2915305132      -10.2551227668      -42.4963460382  TIP3      6254            0.0000000000
     43663      6455  TIP3      OH2           -12.4134095468       -6.2372387219      -40.1550977282  TIP3      6255            0.0000000000
     43664      6455  TIP3      H1            -12.3037287599       -6.4207547015      -41.1051097344  TIP3      6255            0.0000000000
     43665      6455  TIP3      H2            -11.6652162438       -6.7018456227      -39.7400500247  TIP3      6255            0.0000000000
     43666      6456  TIP3      OH2           -13.7110191205      -10.7907876015      -39.1552595318  TIP3      6256            0.0000000000
     43667      6456  TIP3      H1            -13.3161321310      -10.8657390814      -40.0550679407  TIP3      6256            0.0000000000
     43668      6456  TIP3      H2            -13.2292273232      -10.0193937103      -38.7654545114  TIP3      6256            0.0000000000
     43669      6457  TIP3      OH2            -6.9340659325       -5.0000763313      -38.4411680262  TIP3      6257            0.0000000000
     43670      6457  TIP3      H1             -7.1848728882       -4.4641580110      -37.6781226955  TIP3      6257            0.0000000000
     43671      6457  TIP3      H2             -7.1319660107       -5.9051889314      -38.1207089192  TIP3      6257            0.0000000000
     43672      6458  TIP3      OH2           -12.3509244669       -6.1832340125      -34.6551820653  TIP3      6258            0.0000000000
     43673      6458  TIP3      H1            -13.0832121224       -5.7384404753      -34.1697718302  TIP3      6258            0.0000000000
     43674      6458  TIP3      H2            -12.8077103734       -6.3124319687      -35.5162110066  TIP3      6258            0.0000000000
     43675      6459  TIP3      OH2            -6.4955107130      -10.5067849319      -46.8944825474  TIP3      6259            0.0000000000
     43676      6459  TIP3      H1             -6.0291987464      -10.4812030767      -46.0191619969  TIP3      6259            0.0000000000
     43677      6459  TIP3      H2             -5.8471583973      -10.0430964436      -47.4771577718  TIP3      6259            0.0000000000
     43678      6460  TIP3      OH2           -15.4467316399      -10.3253611491      -35.3018037376  TIP3      6260            0.0000000000
     43679      6460  TIP3      H1            -15.3911366963       -9.3639720328      -35.1903373208  TIP3      6260            0.0000000000
     43680      6460  TIP3      H2            -16.3516468379      -10.4746187967      -34.9873202673  TIP3      6260            0.0000000000
     43681      6461  TIP3      OH2            -8.8212349555       -4.1942710765      -44.1803676455  TIP3      6261            0.0000000000
     43682      6461  TIP3      H1             -8.7616775885       -3.9456463218      -43.2526999927  TIP3      6261            0.0000000000
     43683      6461  TIP3      H2             -9.3222439820       -3.4621622251      -44.5656284379  TIP3      6261            0.0000000000
     43684      6462  TIP3      OH2           -14.1818387694       -4.4683754919      -33.7514582916  TIP3      6262            0.0000000000
     43685      6462  TIP3      H1            -14.3304464643       -4.0601538968      -34.6352266192  TIP3      6262            0.0000000000
     43686      6462  TIP3      H2            -15.1068838806       -4.6542608881      -33.4905450068  TIP3      6262            0.0000000000
     43687      6463  TIP3      OH2            -2.8358612985      -19.5527640849      -47.1214023831  TIP3      6263            0.0000000000
     43688      6463  TIP3      H1             -3.7266682119      -19.4534916455      -46.7117678038  TIP3      6263            0.0000000000
     43689      6463  TIP3      H2             -2.7260386458      -18.6512722693      -47.4724852077  TIP3      6263            0.0000000000
     43690      6464  TIP3      OH2           -14.8501587976      -10.6414709714      -45.1067383946  TIP3      6264            0.0000000000
     43691      6464  TIP3      H1            -15.2909741032       -9.9167235820      -45.5949621164  TIP3      6264            0.0000000000
     43692      6464  TIP3      H2            -15.2156410964      -11.4243478444      -45.5397133330  TIP3      6264            0.0000000000
     43693      6465  TIP3      OH2            -1.6134796485       -4.5072885923      -48.6707153461  TIP3      6265            0.0000000000
     43694      6465  TIP3      H1             -1.3493981779       -3.5679149351      -48.5492843539  TIP3      6265            0.0000000000
     43695      6465  TIP3      H2             -0.7785529422       -4.9762482186      -48.4808852392  TIP3      6265            0.0000000000
     43696      6466  TIP3      OH2           -18.4877757686       -7.7831060261      -36.3008948458  TIP3      6266            0.0000000000
     43697      6466  TIP3      H1            -18.9395282534       -7.6808246028      -37.1564781136  TIP3      6266            0.0000000000
     43698      6466  TIP3      H2            -18.1980898690       -8.7226070525      -36.3619387922  TIP3      6266            0.0000000000
     43699      6467  TIP3      OH2           -18.8680647529       -5.2287482278      -39.7706156475  TIP3      6267            0.0000000000
     43700      6467  TIP3      H1            -17.9052840550       -5.2957529673      -39.8188563665  TIP3      6267            0.0000000000
     43701      6467  TIP3      H2            -18.9733019327       -4.4215476969      -39.2492470048  TIP3      6267            0.0000000000
     43702      6468  TIP3      OH2            -0.7465709923       -4.6650462896      -33.8824073837  TIP3      6268            0.0000000000
     43703      6468  TIP3      H1             -0.8900202691       -5.5916483771      -34.1101265614  TIP3      6268            0.0000000000
     43704      6468  TIP3      H2             -1.5621928504       -4.5071346409      -33.3535215672  TIP3      6268            0.0000000000
     43705      6469  TIP3      OH2            -9.8382165144       -5.1050261233      -34.8626018023  TIP3      6269            0.0000000000
     43706      6469  TIP3      H1             -9.7748153333       -4.2166357899      -34.4566035624  TIP3      6269            0.0000000000
     43707      6469  TIP3      H2            -10.7542124915       -5.3903482593      -34.6534050739  TIP3      6269            0.0000000000
     43708      6470  TIP3      OH2            -9.4357185486       -1.4174657673      -45.4423151997  TIP3      6270            0.0000000000
     43709      6470  TIP3      H1             -9.2747193623       -1.2018484447      -46.3808078270  TIP3      6270            0.0000000000
     43710      6470  TIP3      H2             -9.3154173493       -0.5362098230      -45.0225124595  TIP3      6270            0.0000000000
     43711      6471  TIP3      OH2           -15.5891867947       -2.6289186779      -43.3017050861  TIP3      6271            0.0000000000
     43712      6471  TIP3      H1            -15.3300470783       -2.8615295181      -42.3768325288  TIP3      6271            0.0000000000
     43713      6471  TIP3      H2            -16.4945794414       -2.9905753657      -43.3316932257  TIP3      6271            0.0000000000
     43714      6472  TIP3      OH2            -6.4694566909       -1.5905566960      -47.8074569209  TIP3      6272            0.0000000000
     43715      6472  TIP3      H1             -5.9574253450       -2.2864220578      -48.2817645238  TIP3      6272            0.0000000000
     43716      6472  TIP3      H2             -6.3237246328       -1.8965900815      -46.8839180964  TIP3      6272            0.0000000000
     43717      6473  TIP3      OH2            -6.6969699838       -2.0981771102      -45.1249092582  TIP3      6273            0.0000000000
     43718      6473  TIP3      H1             -7.6655349438       -2.0314514838      -45.0016237076  TIP3      6273            0.0000000000
     43719      6473  TIP3      H2             -6.5156274466       -2.9903043317      -44.7926797878  TIP3      6273            0.0000000000
     43720      6474  TIP3      OH2            -4.2553313855      -13.3521087372      -33.1187912371  TIP3      6274            0.0000000000
     43721      6474  TIP3      H1             -3.9754159967      -12.6767724238      -33.7548130219  TIP3      6274            0.0000000000
     43722      6474  TIP3      H2             -3.7991810383      -14.1394283602      -33.4602474454  TIP3      6274            0.0000000000
     43723      6475  TIP3      OH2           -16.3039285141       -6.6020862776      -35.4493506823  TIP3      6275            0.0000000000
     43724      6475  TIP3      H1            -16.3362268122       -6.9351153095      -34.5269455662  TIP3      6275            0.0000000000
     43725      6475  TIP3      H2            -17.1808294650       -6.9085571885      -35.7831046959  TIP3      6275            0.0000000000
     43726      6476  TIP3      OH2           -13.7055493989      -18.0941393856      -39.6458760615  TIP3      6276            0.0000000000
     43727      6476  TIP3      H1            -14.6266139689      -18.1425136788      -39.9630254060  TIP3      6276            0.0000000000
     43728      6476  TIP3      H2            -13.8234978149      -17.4981511332      -38.8770479609  TIP3      6276            0.0000000000
     43729      6477  TIP3      OH2            -8.8702082389      -18.6138203763      -36.4096765182  TIP3      6277            0.0000000000
     43730      6477  TIP3      H1             -8.6135044234      -19.2735793677      -35.7404134725  TIP3      6277            0.0000000000
     43731      6477  TIP3      H2             -9.8472832135      -18.5841232649      -36.2742771293  TIP3      6277            0.0000000000
     43732      6478  TIP3      OH2            -6.0621767038      -14.2791141989      -35.0259198750  TIP3      6278            0.0000000000
     43733      6478  TIP3      H1             -6.1886481959      -14.2171090674      -34.0612076286  TIP3      6278            0.0000000000
     43734      6478  TIP3      H2             -5.6457790591      -13.4071568027      -35.2083514081  TIP3      6278            0.0000000000
     43735      6479  TIP3      OH2            -4.8572871215       -9.5518852537      -48.6374848920  TIP3      6279            0.0000000000
     43736      6479  TIP3      H1             -5.2241477450       -9.4668484894      -49.5513749669  TIP3      6279            0.0000000000
     43737      6479  TIP3      H2             -3.9176479335       -9.3467412418      -48.8349950848  TIP3      6279            0.0000000000
     43738      6480  TIP3      OH2            -9.2239292386      -15.7900877751      -48.6609115645  TIP3      6280            0.0000000000
     43739      6480  TIP3      H1             -9.7222979812      -15.9985534892      -47.8352504167  TIP3      6280            0.0000000000
     43740      6480  TIP3      H2             -9.9087307009      -16.0193268348      -49.3014047989  TIP3      6280            0.0000000000
     43741      6481  TIP3      OH2           -13.5023818540      -13.2406043411      -38.0875930399  TIP3      6281            0.0000000000
     43742      6481  TIP3      H1            -14.3753501978      -13.3005189664      -37.6405165131  TIP3      6281            0.0000000000
     43743      6481  TIP3      H2            -13.5978991414      -12.3595627561      -38.5112435832  TIP3      6281            0.0000000000
     43744      6482  TIP3      OH2           -13.6853260047      -13.4919405895      -43.4146805678  TIP3      6282            0.0000000000
     43745      6482  TIP3      H1            -14.6303202361      -13.3218302570      -43.5901566075  TIP3      6282            0.0000000000
     43746      6482  TIP3      H2            -13.2829542261      -13.4607424777      -44.3146054523  TIP3      6282            0.0000000000
     43747      6483  TIP3      OH2            -7.8844794612      -12.2157810539      -44.2565322132  TIP3      6283            0.0000000000
     43748      6483  TIP3      H1             -8.3272521845      -11.5016734718      -44.7788053132  TIP3      6283            0.0000000000
     43749      6483  TIP3      H2             -7.3385562702      -12.6160685045      -44.9593521186  TIP3      6283            0.0000000000
     43750      6484  TIP3      OH2            -9.2537855791      -12.2915424104      -33.2005367184  TIP3      6284            0.0000000000
     43751      6484  TIP3      H1             -9.6416961525      -13.0999867344      -32.7997815989  TIP3      6284            0.0000000000
     43752      6484  TIP3      H2             -8.5337632567      -12.1167140568      -32.5585535894  TIP3      6284            0.0000000000
     43753      6485  TIP3      OH2            -7.1737964936      -13.0250712428      -41.5679256023  TIP3      6285            0.0000000000
     43754      6485  TIP3      H1             -7.1652501647      -12.1544759402      -42.0167906287  TIP3      6285            0.0000000000
     43755      6485  TIP3      H2             -7.1608780790      -13.5931369844      -42.3616690360  TIP3      6285            0.0000000000
     43756      6486  TIP3      OH2           -15.8945287371      -13.2446901311      -36.9452048888  TIP3      6286            0.0000000000
     43757      6486  TIP3      H1            -15.9840924419      -12.8006926671      -36.0835463023  TIP3      6286            0.0000000000
     43758      6486  TIP3      H2            -16.3224790504      -14.1117005494      -36.7806225607  TIP3      6286            0.0000000000
     43759      6487  TIP3      OH2           -12.5851677081      -15.6122775945      -49.4053375617  TIP3      6287            0.0000000000
     43760      6487  TIP3      H1            -13.0563185145      -15.9743319586      -48.6298713251  TIP3      6287            0.0000000000
     43761      6487  TIP3      H2            -13.3006689309      -15.3311810911      -49.9900887311  TIP3      6287            0.0000000000
     43762      6488  TIP3      OH2           -19.2514739488      -15.9329512014      -42.3662752141  TIP3      6288            0.0000000000
     43763      6488  TIP3      H1            -18.5337731385      -15.8915164174      -41.7244957200  TIP3      6288            0.0000000000
     43764      6488  TIP3      H2            -18.7824214572      -15.9712232832      -43.2162998489  TIP3      6288            0.0000000000
     43765      6489  TIP3      OH2           -18.0711956267      -15.2398766914      -47.1193137332  TIP3      6289            0.0000000000
     43766      6489  TIP3      H1            -17.2673780743      -14.8030075378      -47.4657993816  TIP3      6289            0.0000000000
     43767      6489  TIP3      H2            -18.6465514277      -14.4500402235      -47.0655142709  TIP3      6289            0.0000000000
     43768      6490  TIP3      OH2            -8.0368561571      -11.4288310136      -37.3809927766  TIP3      6290            0.0000000000
     43769      6490  TIP3      H1             -7.4682651167      -12.1257734708      -37.7837115641  TIP3      6290            0.0000000000
     43770      6490  TIP3      H2             -8.5902969922      -11.9651549918      -36.7775486408  TIP3      6290            0.0000000000
     43771      6491  TIP3      OH2           -10.8091274154      -15.6066164937      -42.2638523371  TIP3      6291            0.0000000000
     43772      6491  TIP3      H1            -11.7644359225      -15.6574602746      -42.0769234944  TIP3      6291            0.0000000000
     43773      6491  TIP3      H2            -10.4003934508      -16.1037184209      -41.5355301777  TIP3      6291            0.0000000000
     43774      6492  TIP3      OH2           -16.4529937860      -13.9796794653      -43.3087095980  TIP3      6292            0.0000000000
     43775      6492  TIP3      H1            -17.2306219221      -13.7032261826      -43.8419101135  TIP3      6292            0.0000000000
     43776      6492  TIP3      H2            -16.1683838638      -14.8237105232      -43.7043196883  TIP3      6292            0.0000000000
     43777      6493  TIP3      OH2           -12.4372067755      -13.8565087110      -45.8079769170  TIP3      6293            0.0000000000
     43778      6493  TIP3      H1            -11.4772985274      -13.7310051959      -45.7876637433  TIP3      6293            0.0000000000
     43779      6493  TIP3      H2            -12.7746187109      -13.2286639300      -46.4862790609  TIP3      6293            0.0000000000
     43780      6494  TIP3      OH2            -6.8815925560      -16.1863505068      -39.2586623648  TIP3      6294            0.0000000000
     43781      6494  TIP3      H1             -7.7746971791      -16.3838710254      -38.9531480954  TIP3      6294            0.0000000000
     43782      6494  TIP3      H2             -6.8864581685      -16.6966423226      -40.0914071596  TIP3      6294            0.0000000000
     43783      6495  TIP3      OH2           -14.0611686882      -12.6159257546      -47.7465483885  TIP3      6295            0.0000000000
     43784      6495  TIP3      H1            -14.8897823394      -12.8601401511      -48.1827107856  TIP3      6295            0.0000000000
     43785      6495  TIP3      H2            -13.4478078968      -12.6930831951      -48.4957552947  TIP3      6295            0.0000000000
     43786      6496  TIP3      OH2            -3.6534247871       -0.4889221769      -32.5838436059  TIP3      6296            0.0000000000
     43787      6496  TIP3      H1             -3.4117271794       -0.1347900345      -33.4586985225  TIP3      6296            0.0000000000
     43788      6496  TIP3      H2             -2.8306234150       -0.2793326587      -32.1092063846  TIP3      6296            0.0000000000
     43789      6497  TIP3      OH2           -16.1344571522       -8.0472506930      -33.0753024636  TIP3      6297            0.0000000000
     43790      6497  TIP3      H1            -15.3579176894       -8.0203822754      -32.4891453959  TIP3      6297            0.0000000000
     43791      6497  TIP3      H2            -16.8888298866       -8.2026923219      -32.4727064505  TIP3      6297            0.0000000000
     43792      6498  TIP3      OH2            -9.9622673484      -12.8969592678      -40.4503961838  TIP3      6298            0.0000000000
     43793      6498  TIP3      H1             -9.2323531687      -12.9663326749      -41.0875028940  TIP3      6298            0.0000000000
     43794      6498  TIP3      H2            -10.1820424368      -13.8286443543      -40.3248557139  TIP3      6298            0.0000000000
     43795      6499  TIP3      OH2           -15.4119367285      -16.7460124598      -44.0525403900  TIP3      6299            0.0000000000
     43796      6499  TIP3      H1            -16.0176557890      -17.3809449403      -43.6161988334  TIP3      6299            0.0000000000
     43797      6499  TIP3      H2            -14.9766033119      -17.3501791701      -44.6687276501  TIP3      6299            0.0000000000
     43798      6500  TIP3      OH2           -11.2723909662      -14.7145125067      -37.9385608498  TIP3      6300            0.0000000000
     43799      6500  TIP3      H1            -12.0717790353      -14.1772074578      -38.1192124791  TIP3      6300            0.0000000000
     43800      6500  TIP3      H2            -10.5898426804      -14.0490514286      -37.9969723953  TIP3      6300            0.0000000000
     43801      6501  TIP3      OH2           -10.5819278485       -8.0017330240      -46.1103602384  TIP3      6301            0.0000000000
     43802      6501  TIP3      H1            -11.3109115402       -8.5420529164      -46.4855413092  TIP3      6301            0.0000000000
     43803      6501  TIP3      H2            -10.9534215219       -7.8323877338      -45.2152746710  TIP3      6301            0.0000000000
     43804      6502  TIP3      OH2            -3.2739747706       -8.7088313156      -37.4594630122  TIP3      6302            0.0000000000
     43805      6502  TIP3      H1             -2.7569635415       -8.1234541695      -38.0644154077  TIP3      6302            0.0000000000
     43806      6502  TIP3      H2             -4.0548052384       -8.8855840474      -38.0098437857  TIP3      6302            0.0000000000
     43807      6503  TIP3      OH2            -6.7096151232      -15.2998893047      -47.9676597878  TIP3      6303            0.0000000000
     43808      6503  TIP3      H1             -7.6764231634      -15.3434534161      -48.1122166401  TIP3      6303            0.0000000000
     43809      6503  TIP3      H2             -6.5892682343      -14.3795879774      -47.6594652037  TIP3      6303            0.0000000000
     43810      6504  TIP3      OH2            -9.4210750484       -7.8323798907      -34.9404412042  TIP3      6304            0.0000000000
     43811      6504  TIP3      H1             -9.6935639554       -7.8937233451      -34.0146054474  TIP3      6304            0.0000000000
     43812      6504  TIP3      H2             -9.6079380938       -6.8905613184      -35.0948345849  TIP3      6304            0.0000000000
     43813      6505  TIP3      OH2            -6.1463456042      -13.1498725434      -46.4735715830  TIP3      6305            0.0000000000
     43814      6505  TIP3      H1             -5.3397509768      -13.4322190724      -45.9930573753  TIP3      6305            0.0000000000
     43815      6505  TIP3      H2             -5.8861189912      -12.2806302690      -46.8274768649  TIP3      6305            0.0000000000
     43816      6506  TIP3      OH2           -15.4057924691       -8.6780218906      -40.5866273404  TIP3      6306            0.0000000000
     43817      6506  TIP3      H1            -14.9878549419       -8.8711133910      -41.4557828641  TIP3      6306            0.0000000000
     43818      6506  TIP3      H2            -15.1837659618       -9.4664887472      -40.0720883165  TIP3      6306            0.0000000000
     43819      6507  TIP3      OH2            -8.4194970323       -6.5960914572      -46.9371001125  TIP3      6307            0.0000000000
     43820      6507  TIP3      H1             -8.7943741980       -5.6889396571      -46.8445331305  TIP3      6307            0.0000000000
     43821      6507  TIP3      H2             -9.2159969139       -7.1495040281      -46.7738671864  TIP3      6307            0.0000000000
     43822      6508  TIP3      OH2           -18.3452522171      -10.5273921222      -35.5949580473  TIP3      6308            0.0000000000
     43823      6508  TIP3      H1            -18.6828946425      -10.9415259311      -34.7792342530  TIP3      6308            0.0000000000
     43824      6508  TIP3      H2            -19.0020951291      -10.8318208078      -36.2600352430  TIP3      6308            0.0000000000
     43825      6509  TIP3      OH2           -11.6045716416      -10.6890709921      -33.5328555543  TIP3      6309            0.0000000000
     43826      6509  TIP3      H1            -12.3332600629      -11.3219231160      -33.6644513287  TIP3      6309            0.0000000000
     43827      6509  TIP3      H2            -10.7992572401      -11.2395114474      -33.4002993997  TIP3      6309            0.0000000000
     43828      6510  TIP3      OH2            -6.6440191218       -5.4831429910      -34.8453264019  TIP3      6310            0.0000000000
     43829      6510  TIP3      H1             -7.4417990844       -5.2571563861      -35.3424782237  TIP3      6310            0.0000000000
     43830      6510  TIP3      H2             -6.8784054805       -5.0857093071      -33.9777466239  TIP3      6310            0.0000000000
     43831      6511  TIP3      OH2            -1.1440273475      -13.2612549511      -46.4680985930  TIP3      6311            0.0000000000
     43832      6511  TIP3      H1             -1.8610251386      -13.5020999618      -47.0952932681  TIP3      6311            0.0000000000
     43833      6511  TIP3      H2             -1.0931431886      -12.3050687880      -46.6656955379  TIP3      6311            0.0000000000
     43834      6512  TIP3      OH2            -1.0310177599       -7.4981701962      -34.1355585592  TIP3      6312            0.0000000000
     43835      6512  TIP3      H1             -1.9327168968       -7.3131141418      -34.4804734794  TIP3      6312            0.0000000000
     43836      6512  TIP3      H2             -0.4886347702       -7.4686284671      -34.9592376776  TIP3      6312            0.0000000000
     43837      6513  TIP3      OH2            -2.7107023371       -4.8323150397      -46.2325497749  TIP3      6313            0.0000000000
     43838      6513  TIP3      H1             -3.5640125402       -5.2764940825      -46.1785050104  TIP3      6313            0.0000000000
     43839      6513  TIP3      H2             -2.5088553933       -4.8309711843      -47.1938003463  TIP3      6313            0.0000000000
     43840      6514  TIP3      OH2            -5.6972073605       -9.6505675277      -39.3772503516  TIP3      6314            0.0000000000
     43841      6514  TIP3      H1             -6.6209118739       -9.9068919967      -39.5518524005  TIP3      6314            0.0000000000
     43842      6514  TIP3      H2             -5.2414828122      -10.3391266307      -39.9022194381  TIP3      6314            0.0000000000
     43843      6515  TIP3      OH2           -13.2703366235       -5.3224325868      -42.9462142864  TIP3      6315            0.0000000000
     43844      6515  TIP3      H1            -13.0505158620       -4.4044851733      -43.2248328661  TIP3      6315            0.0000000000
     43845      6515  TIP3      H2            -14.1885736487       -5.3547720976      -43.2487043184  TIP3      6315            0.0000000000
     43846      6516  TIP3      OH2           -17.1380170734      -10.7007400483      -48.8603670736  TIP3      6316            0.0000000000
     43847      6516  TIP3      H1            -16.6058775776      -10.1495841642      -48.2579292871  TIP3      6316            0.0000000000
     43848      6516  TIP3      H2            -18.0261671964      -10.6064763088      -48.4545384644  TIP3      6316            0.0000000000
     43849      6517  TIP3      OH2           -11.8455907617       -7.7265700470      -43.6400102782  TIP3      6317            0.0000000000
     43850      6517  TIP3      H1            -12.2919122027       -6.8610924428      -43.5161547789  TIP3      6317            0.0000000000
     43851      6517  TIP3      H2            -12.3258627889       -8.2957017970      -43.0076945025  TIP3      6317            0.0000000000
     43852      6518  TIP3      OH2           -11.2393713338       -3.5840638769      -36.7442795133  TIP3      6318            0.0000000000
     43853      6518  TIP3      H1            -10.6431376388       -2.9278087447      -37.1551817016  TIP3      6318            0.0000000000
     43854      6518  TIP3      H2            -10.6224348407       -4.0982391323      -36.1811256896  TIP3      6318            0.0000000000
     43855      6519  TIP3      OH2           -12.9753748351       -2.8870138204      -44.1039700832  TIP3      6319            0.0000000000
     43856      6519  TIP3      H1            -13.9104524996       -2.6859644218      -43.8788026593  TIP3      6319            0.0000000000
     43857      6519  TIP3      H2            -12.5645628230       -2.0361407908      -43.8231695798  TIP3      6319            0.0000000000
     43858      6520  TIP3      OH2            -8.1200605047       -7.4750068884      -37.5051546855  TIP3      6320            0.0000000000
     43859      6520  TIP3      H1             -8.4970147766       -7.7180106643      -36.6300320631  TIP3      6320            0.0000000000
     43860      6520  TIP3      H2             -7.6304917883       -8.2848707510      -37.7380570736  TIP3      6320            0.0000000000
     43861      6521  TIP3      OH2            -5.2747251762       -6.4184579279      -48.4848781713  TIP3      6321            0.0000000000
     43862      6521  TIP3      H1             -5.3130153546       -6.8435775905      -47.6029900613  TIP3      6321            0.0000000000
     43863      6521  TIP3      H2             -6.2092261354       -6.4712302982      -48.7139399570  TIP3      6321            0.0000000000
     43864      6522  TIP3      OH2            -4.7482934869       -2.9530799607      -35.1355865350  TIP3      6322            0.0000000000
     43865      6522  TIP3      H1             -5.6457348083       -3.3357520233      -35.0949057596  TIP3      6322            0.0000000000
     43866      6522  TIP3      H2             -4.7988755017       -2.3519336804      -35.9150916111  TIP3      6322            0.0000000000
     43867      6523  TIP3      OH2            -0.8503204431       -2.0115312359      -48.0944947707  TIP3      6323            0.0000000000
     43868      6523  TIP3      H1             -0.2030532339       -1.3529705979      -48.4071686240  TIP3      6323            0.0000000000
     43869      6523  TIP3      H2             -1.4633912585       -1.3997658758      -47.6056186083  TIP3      6323            0.0000000000
     43870      6524  TIP3      OH2           -16.6062799030      -15.7344135109      -35.7505405379  TIP3      6324            0.0000000000
     43871      6524  TIP3      H1            -17.2414468457      -15.1713874786      -35.2652870486  TIP3      6324            0.0000000000
     43872      6524  TIP3      H2            -16.5516686434      -16.4832647456      -35.1436805362  TIP3      6324            0.0000000000
     43873      6525  TIP3      OH2            -4.6128011725       -7.6079076237      -46.1300592216  TIP3      6325            0.0000000000
     43874      6525  TIP3      H1             -4.7507274220       -8.5632069138      -46.2207020378  TIP3      6325            0.0000000000
     43875      6525  TIP3      H2             -3.6657841303       -7.5726369589      -46.3581617426  TIP3      6325            0.0000000000
     43876      6526  TIP3      OH2           -17.1823847078       -3.8634954936      -37.3681288179  TIP3      6326            0.0000000000
     43877      6526  TIP3      H1            -16.5120882140       -4.5535772384      -37.2852333792  TIP3      6326            0.0000000000
     43878      6526  TIP3      H2            -17.1173731984       -3.4327181202      -36.5090800678  TIP3      6326            0.0000000000
     43879      6527  TIP3      OH2           -12.7608298435       -5.9476264395      -47.4831562720  TIP3      6327            0.0000000000
     43880      6527  TIP3      H1            -11.9478938334       -6.2851731393      -47.0776528844  TIP3      6327            0.0000000000
     43881      6527  TIP3      H2            -12.6791884404       -4.9828346797      -47.2885048791  TIP3      6327            0.0000000000
     43882      6528  TIP3      OH2           -16.0678353574       -8.7537964954      -46.9970751026  TIP3      6328            0.0000000000
     43883      6528  TIP3      H1            -16.8593952664       -8.2990167452      -46.6323897197  TIP3      6328            0.0000000000
     43884      6528  TIP3      H2            -15.5752768803       -7.9897033269      -47.3712175866  TIP3      6328            0.0000000000
     43885      6529  TIP3      OH2            -8.0159916481      -15.9080209296      -36.3565101794  TIP3      6329            0.0000000000
     43886      6529  TIP3      H1             -7.1731756022      -15.4923064011      -36.6348428382  TIP3      6329            0.0000000000
     43887      6529  TIP3      H2             -8.1596632794      -16.6181269955      -37.0023192885  TIP3      6329            0.0000000000
     43888      6530  TIP3      OH2            -7.2040091639      -16.7978073910      -45.4552437944  TIP3      6330            0.0000000000
     43889      6530  TIP3      H1             -7.0151238743      -16.1676885600      -46.1721298227  TIP3      6330            0.0000000000
     43890      6530  TIP3      H2             -6.7492277924      -16.3708287176      -44.6951801415  TIP3      6330            0.0000000000
     43891      6531  TIP3      OH2            -9.6337538450       -4.1797908525      -47.1892589058  TIP3      6331            0.0000000000
     43892      6531  TIP3      H1            -10.4361690600       -4.1034707922      -46.6469852072  TIP3      6331            0.0000000000
     43893      6531  TIP3      H2             -9.5142563426       -3.2471793660      -47.4583249441  TIP3      6331            0.0000000000
     43894      6532  TIP3      OH2            -9.9132674345      -14.5246192509      -44.5718728247  TIP3      6332            0.0000000000
     43895      6532  TIP3      H1             -9.4585697918      -13.6854615503      -44.3966348122  TIP3      6332            0.0000000000
     43896      6532  TIP3      H2            -10.2937236894      -14.7795307333      -43.7029662077  TIP3      6332            0.0000000000
     43897      6533  TIP3      OH2            -9.0891396114      -13.4188822633      -35.8541170721  TIP3      6333            0.0000000000
     43898      6533  TIP3      H1             -8.5829573013      -13.2506298023      -35.0319424573  TIP3      6333            0.0000000000
     43899      6533  TIP3      H2             -8.7310718213      -14.3116719559      -36.0724118877  TIP3      6333            0.0000000000
     43900      6534  TIP3      OH2            -9.3871345894      -17.7435919370      -44.0999887470  TIP3      6334            0.0000000000
     43901      6534  TIP3      H1             -9.7468338262      -16.9712544926      -43.6373949055  TIP3      6334            0.0000000000
     43902      6534  TIP3      H2             -8.5802540694      -17.3370751245      -44.5138894662  TIP3      6334            0.0000000000
     43903      6535  TIP3      OH2           -12.3690791306       -3.4149579664      -46.7486251605  TIP3      6335            0.0000000000
     43904      6535  TIP3      H1            -12.1644807224       -2.5505825776      -47.1682167622  TIP3      6335            0.0000000000
     43905      6535  TIP3      H2            -12.6419168302       -3.1443342459      -45.8448595697  TIP3      6335            0.0000000000
     43906      6536  TIP3      OH2           -13.7311105710      -16.4481562312      -46.9296313741  TIP3      6336            0.0000000000
     43907      6536  TIP3      H1            -13.8000572607      -15.6347872010      -46.4150195324  TIP3      6336            0.0000000000
     43908      6536  TIP3      H2            -12.8018544362      -16.6738757426      -46.7419115552  TIP3      6336            0.0000000000
     43909      6537  TIP3      OH2            -3.6279833823      -15.6062087736      -34.7204011501  TIP3      6337            0.0000000000
     43910      6537  TIP3      H1             -4.5183635726      -15.3186480220      -35.0117675583  TIP3      6337            0.0000000000
     43911      6537  TIP3      H2             -3.1468373152      -15.7020105690      -35.5682212015  TIP3      6337            0.0000000000
     43912      6538  TIP3      OH2            -4.7750606806      -12.0157016268      -40.7454601494  TIP3      6338            0.0000000000
     43913      6538  TIP3      H1             -5.5432216813      -12.6075011650      -40.8323283155  TIP3      6338            0.0000000000
     43914      6538  TIP3      H2             -4.1285152290      -12.5544706826      -40.2417332053  TIP3      6338            0.0000000000
     43915      6539  TIP3      OH2           -15.3270959894       -6.2993477581      -48.1017965448  TIP3      6339            0.0000000000
     43916      6539  TIP3      H1            -14.4213810662       -6.0809941089      -47.7936723607  TIP3      6339            0.0000000000
     43917      6539  TIP3      H2            -15.1695322943       -6.3362806673      -49.0591425550  TIP3      6339            0.0000000000
     43918      6540  TIP3      OH2           -16.9759387258      -13.3550677892      -48.7044955418  TIP3      6340            0.0000000000
     43919      6540  TIP3      H1            -16.9302173393      -12.3733300691      -48.6991232219  TIP3      6340            0.0000000000
     43920      6540  TIP3      H2            -17.6774320012      -13.5312077664      -49.3546902299  TIP3      6340            0.0000000000
     43921      6541  TIP3      OH2            -3.7201546435       -2.6580100756      -39.2339961853  TIP3      6341            0.0000000000
     43922      6541  TIP3      H1             -3.7491288917       -2.0722562709      -40.0198393369  TIP3      6341            0.0000000000
     43923      6541  TIP3      H2             -2.7447741530       -2.6502405419      -39.1216425209  TIP3      6341            0.0000000000
     43924      6542  TIP3      OH2           -16.2722250313      -18.5758744348      -40.1647673665  TIP3      6342            0.0000000000
     43925      6542  TIP3      H1            -16.3002005784      -18.6845307160      -41.1388077991  TIP3      6342            0.0000000000
     43926      6542  TIP3      H2            -16.5420213782      -19.4783811169      -39.8759861632  TIP3      6342            0.0000000000
     43927      6543  TIP3      OH2           -17.6127387197       -4.6976803284      -44.1450070157  TIP3      6343            0.0000000000
     43928      6543  TIP3      H1            -18.4011097552       -4.1385943227      -44.1209770820  TIP3      6343            0.0000000000
     43929      6543  TIP3      H2            -17.2300051596       -4.3650561534      -44.9722910715  TIP3      6343            0.0000000000
     43930      6544  TIP3      OH2           -18.2408294831       -1.9116757781      -32.9670037760  TIP3      6344            0.0000000000
     43931      6544  TIP3      H1            -17.6295596426       -2.0411600274      -32.2064670241  TIP3      6344            0.0000000000
     43932      6544  TIP3      H2            -18.5999955917       -2.8162871177      -33.0788098304  TIP3      6344            0.0000000000
     43933      6545  TIP3      OH2           -13.3723105544       -2.9987923129      -31.4416522272  TIP3      6345            0.0000000000
     43934      6545  TIP3      H1            -12.5298277055       -3.4208430492      -31.1764337283  TIP3      6345            0.0000000000
     43935      6545  TIP3      H2            -13.5396421759       -3.4173335182      -32.3029978346  TIP3      6345            0.0000000000
     43936      6546  TIP3      OH2            -9.4321889663       -3.8233516276      -50.1950569033  TIP3      6346            0.0000000000
     43937      6546  TIP3      H1            -10.0945442750       -4.4596222639      -49.8861571409  TIP3      6346            0.0000000000
     43938      6546  TIP3      H2             -8.6609749930       -4.1396932995      -49.7124444850  TIP3      6346            0.0000000000
     43939      6547  TIP3      OH2            -7.0923922762       -4.3331828243      -32.4747060293  TIP3      6347            0.0000000000
     43940      6547  TIP3      H1             -7.4694367707       -5.2007462226      -32.1769487223  TIP3      6347            0.0000000000
     43941      6547  TIP3      H2             -6.2349573775       -4.3292516143      -32.0175916402  TIP3      6347            0.0000000000
     43942      6548  TIP3      OH2            -5.1889834088       -3.8034124593      -48.7564490286  TIP3      6348            0.0000000000
     43943      6548  TIP3      H1             -4.9847929555       -4.7555771331      -48.7893739703  TIP3      6348            0.0000000000
     43944      6548  TIP3      H2             -4.7400471516       -3.4409932346      -49.5413502383  TIP3      6348            0.0000000000
     43945      6549  TIP3      OH2           -18.5867798151       -8.0557637858      -31.7893972215  TIP3      6349            0.0000000000
     43946      6549  TIP3      H1            -18.9632767874       -8.9445262526      -31.7018857906  TIP3      6349            0.0000000000
     43947      6549  TIP3      H2            -19.0152632545       -7.7666448066      -32.6288399922  TIP3      6349            0.0000000000
     43948      6550  TIP3      OH2           -13.3884805494       -8.6717608611      -49.3965887309  TIP3      6350            0.0000000000
     43949      6550  TIP3      H1            -13.3080554693       -9.0332136051      -48.4866216647  TIP3      6350            0.0000000000
     43950      6550  TIP3      H2            -12.6541638146       -8.0389585374      -49.3490468335  TIP3      6350            0.0000000000
     43951      6551  TIP3      OH2           -11.5342208895       -8.0563970466      -32.7020426777  TIP3      6351            0.0000000000
     43952      6551  TIP3      H1            -11.7019192982       -7.5186781340      -33.5030608175  TIP3      6351            0.0000000000
     43953      6551  TIP3      H2            -11.4139880905       -8.9716407781      -33.0417075615  TIP3      6351            0.0000000000
     43954      6552  TIP3      OH2            -5.9379099064       -8.2125657405      -34.8596293783  TIP3      6352            0.0000000000
     43955      6552  TIP3      H1             -5.0970751687       -7.7046047852      -34.8295648755  TIP3      6352            0.0000000000
     43956      6552  TIP3      H2             -6.5649147117       -7.4653338267      -34.8187694949  TIP3      6352            0.0000000000
     43957      6553  TIP3      OH2           -17.1490070549      -11.1673560753      -32.1038169123  TIP3      6353            0.0000000000
     43958      6553  TIP3      H1            -16.3869232897      -11.7640970811      -32.0699232382  TIP3      6353            0.0000000000
     43959      6553  TIP3      H2            -16.9791744165      -10.5746745535      -31.3373985368  TIP3      6353            0.0000000000
     43960      6554  TIP3      OH2           -12.5043409611       -9.7471092060      -47.1290332869  TIP3      6354            0.0000000000
     43961      6554  TIP3      H1            -13.2218298504      -10.2888279713      -46.7416324582  TIP3      6354            0.0000000000
     43962      6554  TIP3      H2            -12.1299102064      -10.3495338694      -47.8047640631  TIP3      6354            0.0000000000
     43963      6555  TIP3      OH2           -13.3876042390      -11.8534449781      -35.4448395541  TIP3      6355            0.0000000000
     43964      6555  TIP3      H1            -14.2026316622      -11.3538801270      -35.2096731500  TIP3      6355            0.0000000000
     43965      6555  TIP3      H2            -13.1948461127      -11.3898008330      -36.2654322640  TIP3      6355            0.0000000000
     43966      6556  TIP3      OH2           -11.1888360510      -11.4740754699      -49.1067640198  TIP3      6356            0.0000000000
     43967      6556  TIP3      H1            -11.0276844698      -11.8278694462      -49.9910274322  TIP3      6356            0.0000000000
     43968      6556  TIP3      H2            -10.2911237762      -11.5206976923      -48.7117318968  TIP3      6356            0.0000000000
     43969      6557  TIP3      OH2            -8.0696511411       -9.5378088390      -31.8666112729  TIP3      6357            0.0000000000
     43970      6557  TIP3      H1             -7.2452367661       -9.8455498639      -32.2695571071  TIP3      6357            0.0000000000
     43971      6557  TIP3      H2             -8.2557629394      -10.2656606652      -31.2319512338  TIP3      6357            0.0000000000
     43972      6558  TIP3      OH2            -2.4402850020       -9.5398046950       50.1384776211  TIP3      6358            0.0000000000
     43973      6558  TIP3      H1             -2.0265886150       -9.8871191833       49.3418216311  TIP3      6358            0.0000000000
     43974      6558  TIP3      H2             -2.1221894791       -8.6113264846       50.0603101908  TIP3      6358            0.0000000000
     43975      6559  TIP3      OH2           -12.8160269427      -14.4927382162      -34.5428745127  TIP3      6359            0.0000000000
     43976      6559  TIP3      H1            -12.6416281668      -15.2911637376      -35.0959244220  TIP3      6359            0.0000000000
     43977      6559  TIP3      H2            -13.7721221559      -14.4100226355      -34.6575134836  TIP3      6359            0.0000000000
     43978      6560  TIP3      OH2           -12.4739705767      -16.4553640760      -36.3879118861  TIP3      6360            0.0000000000
     43979      6560  TIP3      H1            -12.0225072925      -15.9457946506      -37.1094267180  TIP3      6360            0.0000000000
     43980      6560  TIP3      H2            -13.3914460560      -16.4656385734      -36.7407277674  TIP3      6360            0.0000000000
     43981      6561  TIP3      OH2           -11.1089379772      -10.6497372893      -36.6872291481  TIP3      6361            0.0000000000
     43982      6561  TIP3      H1            -10.3447441025      -10.0900381710      -36.8929340705  TIP3      6361            0.0000000000
     43983      6561  TIP3      H2            -11.8044637586       -9.9614098337      -36.7452623770  TIP3      6361            0.0000000000
     43984      6562  TIP3      OH2            -6.8603034056      -13.0309954134      -31.4381520444  TIP3      6362            0.0000000000
     43985      6562  TIP3      H1             -6.5669929426      -13.9487825683      -31.4929860578  TIP3      6362            0.0000000000
     43986      6562  TIP3      H2             -6.0122633528      -12.5606408290      -31.5130025270  TIP3      6362            0.0000000000
     43987      6563  TIP3      OH2            -5.0981554735       -9.9683319617      -32.9757147803  TIP3      6363            0.0000000000
     43988      6563  TIP3      H1             -5.4814656290       -9.4257310998      -33.7011277324  TIP3      6363            0.0000000000
     43989      6563  TIP3      H2             -4.1542564587       -9.9876457160      -33.2239855228  TIP3      6363            0.0000000000
     43990      6564  TIP3      OH2           -14.4898936992      -13.5192556666      -32.1601544362  TIP3      6364            0.0000000000
     43991      6564  TIP3      H1            -15.3304911429      -14.0323355280      -32.2276326845  TIP3      6364            0.0000000000
     43992      6564  TIP3      H2            -13.9210988705      -13.9815275729      -32.7950044165  TIP3      6364            0.0000000000
     43993      6565  TIP3      OH2           -11.5993237079      -18.9737225980      -36.3693274472  TIP3      6365            0.0000000000
     43994      6565  TIP3      H1            -11.9660670853      -18.0733190998      -36.3084293393  TIP3      6365            0.0000000000
     43995      6565  TIP3      H2            -12.3436063268      -19.4344433910      -36.7914006878  TIP3      6365            0.0000000000
     43996      6566  TIP3      OH2           -10.5726898028      -14.5209227072      -32.4690737530  TIP3      6366            0.0000000000
     43997      6566  TIP3      H1            -10.8494678070      -14.7627792477      -31.5655741412  TIP3      6366            0.0000000000
     43998      6566  TIP3      H2            -11.2910061361      -14.9040116332      -32.9910056722  TIP3      6366            0.0000000000
     43999      6567  TIP3      OH2            -8.0460061812      -15.3936761312      -33.2213626176  TIP3      6367            0.0000000000
     44000      6567  TIP3      H1             -8.9209268119      -15.0946880135      -32.9103535717  TIP3      6367            0.0000000000
     44001      6567  TIP3      H2             -7.6692991604      -15.7911927453      -32.4013984460  TIP3      6367            0.0000000000
     44002      6568  TIP3      OH2            -6.3870145320      -16.8427468169      -31.8579171692  TIP3      6368            0.0000000000
     44003      6568  TIP3      H1             -6.2136330803      -17.7766377911      -31.6023764887  TIP3      6368            0.0000000000
     44004      6568  TIP3      H2             -6.5202187845      -16.4314671319      -30.9719995561  TIP3      6368            0.0000000000
     44005      6569  TIP3      OH2           -16.4467976462      -15.4155854627      -32.2137140262  TIP3      6369            0.0000000000
     44006      6569  TIP3      H1            -16.5216098264      -16.2978337263      -32.6334399151  TIP3      6369            0.0000000000
     44007      6569  TIP3      H2            -16.4065695075      -15.6343892077      -31.2469758440  TIP3      6369            0.0000000000
     44008      6570  TIP3      OH2           -11.8107374874      -19.1989852332      -33.4582229325  TIP3      6370            0.0000000000
     44009      6570  TIP3      H1            -11.1524850461      -19.9061936892      -33.3299545466  TIP3      6370            0.0000000000
     44010      6570  TIP3      H2            -11.8293575178      -19.1759775435      -34.4372544438  TIP3      6370            0.0000000000
     44011      6571  TIP3      OH2           -11.3937635986      -17.8931487662      -31.1237129730  TIP3      6371            0.0000000000
     44012      6571  TIP3      H1            -11.6504116350      -18.3329973456      -31.9702353463  TIP3      6371            0.0000000000
     44013      6571  TIP3      H2            -12.0238572079      -17.1355602572      -31.1390203688  TIP3      6371            0.0000000000
     44014      6572  TIP3      OH2           -11.9952725567       -1.0401255377      -47.8939966836  TIP3      6372            0.0000000000
     44015      6572  TIP3      H1            -11.0272815321       -1.0438435446      -47.8440453158  TIP3      6372            0.0000000000
     44016      6572  TIP3      H2            -12.1760042675       -0.6332113411      -48.7535918153  TIP3      6372            0.0000000000
     44017      6573  TIP3      OH2           -18.0390591607       -5.9767037034      -48.4471832679  TIP3      6373            0.0000000000
     44018      6573  TIP3      H1            -17.0711712269       -6.1540454791      -48.3897807922  TIP3      6373            0.0000000000
     44019      6573  TIP3      H2            -18.3318628104       -6.5356971681      -49.1910469171  TIP3      6373            0.0000000000
     44020      6574  TIP3      OH2           -19.2605617793       -1.1838769437      -43.7558499469  TIP3      6374            0.0000000000
     44021      6574  TIP3      H1            -20.0510894492       -1.6527867659      -44.1060814548  TIP3      6374            0.0000000000
     44022      6574  TIP3      H2            -19.0027740797       -1.7821794868      -43.0190080758  TIP3      6374            0.0000000000
     44023      6575  TIP3      OH2           -18.4774008061       -2.8763770775      -41.8118170752  TIP3      6375            0.0000000000
     44024      6575  TIP3      H1            -19.0205229224       -3.6443232617      -41.5570538111  TIP3      6375            0.0000000000
     44025      6575  TIP3      H2            -17.9041815204       -2.7394507548      -41.0325148744  TIP3      6375            0.0000000000
     44026      6576  TIP3      OH2            -1.0740215481       -2.1530793998      -39.1258572478  TIP3      6376            0.0000000000
     44027      6576  TIP3      H1             -0.7443582558       -2.0577342241      -38.2180339607  TIP3      6376            0.0000000000
     44028      6576  TIP3      H2             -0.3232705149       -1.7914542514      -39.6189495951  TIP3      6376            0.0000000000
     44029      6577  TIP3      OH2            -1.5350362463       -2.5595082825      -36.0603072930  TIP3      6377            0.0000000000
     44030      6577  TIP3      H1             -1.9515418955       -3.2646276068      -36.6095906854  TIP3      6377            0.0000000000
     44031      6577  TIP3      H2             -1.3208671643       -3.0973250037      -35.2691751411  TIP3      6377            0.0000000000
     44032      6578  TIP3      OH2            -3.0371707209       -6.6890420836      -31.1964270693  TIP3      6378            0.0000000000
     44033      6578  TIP3      H1             -3.8588380886       -6.6560977507      -30.6682001280  TIP3      6378            0.0000000000
     44034      6578  TIP3      H2             -2.5308281668       -5.9709293391      -30.7639204217  TIP3      6378            0.0000000000
     44035      6579  TIP3      OH2            -1.9868538590       -8.2937057035      -46.1981343405  TIP3      6379            0.0000000000
     44036      6579  TIP3      H1             -1.1139771191       -7.9281283436      -45.9221791989  TIP3      6379            0.0000000000
     44037      6579  TIP3      H2             -2.2048786009       -8.8841235882      -45.4533137141  TIP3      6379            0.0000000000
     44038      6580  TIP3      OH2            -1.4571554865      -10.1459421182      -43.7946807565  TIP3      6380            0.0000000000
     44039      6580  TIP3      H1             -2.2918431646      -10.6253247669      -43.6186098033  TIP3      6380            0.0000000000
     44040      6580  TIP3      H2             -1.1370576399       -9.9740233504      -42.8859885543  TIP3      6380            0.0000000000
     44041      6581  TIP3      OH2            -1.7308950247       -7.3963594837      -39.1671298848  TIP3      6381            0.0000000000
     44042      6581  TIP3      H1             -1.1140849413       -8.0950572957      -39.4620833705  TIP3      6381            0.0000000000
     44043      6581  TIP3      H2             -1.3680560045       -6.6160124923      -39.6231371031  TIP3      6381            0.0000000000
     44044      6582  TIP3      OH2            -2.9651876492       -4.7387306031      -36.8125620592  TIP3      6382            0.0000000000
     44045      6582  TIP3      H1             -3.6575336474       -4.3226638428      -36.2661151104  TIP3      6382            0.0000000000
     44046      6582  TIP3      H2             -3.4686452450       -5.0148065493      -37.6140700265  TIP3      6382            0.0000000000
     44047      6583  TIP3      OH2            -0.8603202773      -10.3974575317      -47.7592648673  TIP3      6383            0.0000000000
     44048      6583  TIP3      H1             -1.5641445945      -10.2036700748      -48.4165190371  TIP3      6383            0.0000000000
     44049      6583  TIP3      H2             -0.9584784540       -9.6206165867      -47.1789393025  TIP3      6383            0.0000000000
     44050      6584  TIP3      OH2            -3.0944329252      -13.6956074046      -48.3829911338  TIP3      6384            0.0000000000
     44051      6584  TIP3      H1             -3.4341552958      -13.1523707812      -49.1210766930  TIP3      6384            0.0000000000
     44052      6584  TIP3      H2             -2.4238332090      -14.1984613798      -48.8739818259  TIP3      6384            0.0000000000
     44053      6585  TIP3      OH2            -3.4549583783      -11.7115164917      -43.0824353793  TIP3      6385            0.0000000000
     44054      6585  TIP3      H1             -3.6819927323      -12.6192139895      -43.3336538567  TIP3      6385            0.0000000000
     44055      6585  TIP3      H2             -3.7972883492      -11.6993583545      -42.1639164804  TIP3      6385            0.0000000000
     44056      6586  TIP3      OH2           -18.6362239495       -9.3826139415      -39.1858326098  TIP3      6386            0.0000000000
     44057      6586  TIP3      H1            -18.5529742740       -9.6984020989      -40.1217251446  TIP3      6386            0.0000000000
     44058      6586  TIP3      H2            -17.7969727266       -9.7624051654      -38.8377974299  TIP3      6386            0.0000000000
     44059      6587  TIP3      OH2            -2.3530150699       -9.8280036321      -33.6718779976  TIP3      6387            0.0000000000
     44060      6587  TIP3      H1             -1.9810550671      -10.7374915223      -33.6851148116  TIP3      6387            0.0000000000
     44061      6587  TIP3      H2             -1.6167129511       -9.2142787556      -33.8770276609  TIP3      6387            0.0000000000
     44062      6588  TIP3      OH2            -1.6564230872      -12.5526051842      -33.7297783468  TIP3      6388            0.0000000000
     44063      6588  TIP3      H1             -2.0110868650      -12.8170007732      -32.8476497602  TIP3      6388            0.0000000000
     44064      6588  TIP3      H2             -0.8817936745      -13.1588833146      -33.7352305920  TIP3      6388            0.0000000000
     44065      6589  TIP3      OH2            -3.3353481290      -15.9271134557      -50.2050148231  TIP3      6389            0.0000000000
     44066      6589  TIP3      H1             -2.7835405007      -16.2322016219      -49.4590258797  TIP3      6389            0.0000000000
     44067      6589  TIP3      H2             -4.2216969653      -15.9809460013      -49.8335495898  TIP3      6389            0.0000000000
     44068      6590  TIP3      OH2            -4.0426156554      -14.0479529852      -44.9243052903  TIP3      6390            0.0000000000
     44069      6590  TIP3      H1             -3.8212874856      -14.9919156364      -44.7736627564  TIP3      6390            0.0000000000
     44070      6590  TIP3      H2             -3.1857164069      -13.7613004117      -45.2731745344  TIP3      6390            0.0000000000
     44071      6591  TIP3      OH2            -2.9514231686      -13.5841143936      -39.4469525211  TIP3      6391            0.0000000000
     44072      6591  TIP3      H1             -1.9831345924      -13.4393808401      -39.2761207929  TIP3      6391            0.0000000000
     44073      6591  TIP3      H2             -3.2474303935      -13.5398000593      -38.5170388828  TIP3      6391            0.0000000000
     44074      6592  TIP3      OH2            -2.9193590244      -12.7992392199      -36.8568281158  TIP3      6392            0.0000000000
     44075      6592  TIP3      H1             -3.7117587301      -12.5049899259      -36.3635207158  TIP3      6392            0.0000000000
     44076      6592  TIP3      H2             -2.4619795219      -11.9360824724      -37.0169159312  TIP3      6392            0.0000000000
     44077      6593  TIP3      OH2           -18.6912123072      -14.5243290589      -33.3219744371  TIP3      6393            0.0000000000
     44078      6593  TIP3      H1            -17.8582925131      -14.5302640878      -32.7961885474  TIP3      6393            0.0000000000
     44079      6593  TIP3      H2            -19.1808886026      -15.2664168851      -32.9209073668  TIP3      6393            0.0000000000
     44080      6594  TIP3      OH2            -0.9978599098      -19.4057360011      -31.2987559139  TIP3      6394            0.0000000000
     44081      6594  TIP3      H1             -0.5354136485      -20.0314629510      -31.8966394440  TIP3      6394            0.0000000000
     44082      6594  TIP3      H2             -0.9632573162      -18.6083494143      -31.8690291375  TIP3      6394            0.0000000000
     44083      6595  TIP3      OH2            -3.1337248028      -16.5466933423      -44.8439756515  TIP3      6395            0.0000000000
     44084      6595  TIP3      H1             -2.7494275909      -16.9063843584      -44.0262501622  TIP3      6395            0.0000000000
     44085      6595  TIP3      H2             -3.6603015920      -17.3051042605      -45.1626857624  TIP3      6395            0.0000000000
     44086      6596  TIP3      OH2           -17.6666056348      -16.1988067555      -39.6617867998  TIP3      6396            0.0000000000
     44087      6596  TIP3      H1            -17.2710641804      -17.0928119238      -39.6950471174  TIP3      6396            0.0000000000
     44088      6596  TIP3      H2            -16.9329017110      -15.6149464744      -39.9316477256  TIP3      6396            0.0000000000
     44089      6597  TIP3      OH2           -19.2372140449      -13.0528477366      -39.0788655783  TIP3      6397            0.0000000000
     44090      6597  TIP3      H1            -18.7169548046      -13.3451355605      -39.8531736637  TIP3      6397            0.0000000000
     44091      6597  TIP3      H2            -18.7455041840      -12.2509369268      -38.8542280959  TIP3      6397            0.0000000000
     44092      6598  TIP3      OH2            -1.1681978502      -16.9704575360      -32.6811628069  TIP3      6398            0.0000000000
     44093      6598  TIP3      H1             -1.8893451204      -16.5875809946      -32.1338084213  TIP3      6398            0.0000000000
     44094      6598  TIP3      H2             -1.6043619688      -17.1249699128      -33.5369811943  TIP3      6398            0.0000000000
     44095      6599  TIP3      OH2            -1.2658626112      -16.5669549869      -48.3570788494  TIP3      6399            0.0000000000
     44096      6599  TIP3      H1             -0.7997079120      -16.9408991993      -49.1240703504  TIP3      6399            0.0000000000
     44097      6599  TIP3      H2             -0.5571451441      -16.0166529147      -47.9708777388  TIP3      6399            0.0000000000
     44098      6600  TIP3      OH2           -19.0496749949      -16.9117522409      -45.1792359817  TIP3      6400            0.0000000000
     44099      6600  TIP3      H1            -19.9503868319      -16.5809047713      -45.0519343342  TIP3      6400            0.0000000000
     44100      6600  TIP3      H2            -18.8071096015      -16.4807836600      -46.0169329364  TIP3      6400            0.0000000000
     44101      6601  TIP3      OH2            -4.2499284843       -1.9259958930      -43.1300047780  TIP3      6401            0.0000000000
     44102      6601  TIP3      H1             -3.5254464513       -2.0758177077      -43.7695414082  TIP3      6401            0.0000000000
     44103      6601  TIP3      H2             -3.9105835286       -1.2548694931      -42.5169146739  TIP3      6401            0.0000000000
     44104      6602  TIP3      OH2           -18.9432045589      -18.3298825546      -36.9028546653  TIP3      6402            0.0000000000
     44105      6602  TIP3      H1            -19.6382774954      -18.6124732758      -36.2829700558  TIP3      6402            0.0000000000
     44106      6602  TIP3      H2            -19.3852607985      -17.5909102561      -37.3563311080  TIP3      6402            0.0000000000
     44107      6603  TIP3      OH2           -16.7246068474       -5.1109480290      -32.8941908603  TIP3      6403            0.0000000000
     44108      6603  TIP3      H1            -17.5483501976       -4.7115451402      -33.2169206903  TIP3      6403            0.0000000000
     44109      6603  TIP3      H2            -16.9372648007       -5.4186707172      -32.0116477884  TIP3      6403            0.0000000000
     44110      6604  TIP3      OH2           -13.9062899491       -3.6159812150      -36.3301530061  TIP3      6404            0.0000000000
     44111      6604  TIP3      H1            -13.8548680562       -2.6984860876      -36.6679767495  TIP3      6404            0.0000000000
     44112      6604  TIP3      H2            -12.9527562657       -3.8238176810      -36.2802712132  TIP3      6404            0.0000000000
     44113      6605  TIP3      OH2            -9.7782476729       -2.3875757361      -33.6828035671  TIP3      6405            0.0000000000
     44114      6605  TIP3      H1             -9.5848372048       -2.6913323863      -32.7775765740  TIP3      6405            0.0000000000
     44115      6605  TIP3      H2             -8.8850137069       -2.0644320231      -33.9334887051  TIP3      6405            0.0000000000
     44116      6606  TIP3      OH2            -7.4239827337       -1.2112124216      -34.1708333003  TIP3      6406            0.0000000000
     44117      6606  TIP3      H1             -6.8547425385       -1.2708396802      -34.9567759013  TIP3      6406            0.0000000000
     44118      6606  TIP3      H2             -7.0247038339       -0.5130981712      -33.6329577510  TIP3      6406            0.0000000000
     44119      6607  TIP3      OH2            -2.2256921172      -18.8034993256      -35.0389606162  TIP3      6407            0.0000000000
     44120      6607  TIP3      H1             -2.9546487170      -18.4448727193      -35.5646382187  TIP3      6407            0.0000000000
     44121      6607  TIP3      H2             -2.0668074216      -19.6767387230      -35.4613885293  TIP3      6407            0.0000000000
     44122      6608  TIP3      OH2           -16.5704425845       -0.6691673838      -36.5762625193  TIP3      6408            0.0000000000
     44123      6608  TIP3      H1            -17.3407262985       -0.1575305543      -36.9079472666  TIP3      6408            0.0000000000
     44124      6608  TIP3      H2            -16.6403741386       -0.4859909339      -35.6259833252  TIP3      6408            0.0000000000
     44125      6609  TIP3      OH2           -14.1658681591       -1.1400843249      -37.5329971954  TIP3      6409            0.0000000000
     44126      6609  TIP3      H1            -15.0846394910       -0.9723510077      -37.2139989899  TIP3      6409            0.0000000000
     44127      6609  TIP3      H2            -14.1255597358       -0.5221622823      -38.2812901627  TIP3      6409            0.0000000000
     44128      6610  TIP3      OH2            -9.4934728856       -1.5055164619      -38.2397952632  TIP3      6410            0.0000000000
     44129      6610  TIP3      H1             -9.8906476092       -0.9367188315      -38.9086733208  TIP3      6410            0.0000000000
     44130      6610  TIP3      H2             -9.2175132976       -0.8394236950      -37.5725048505  TIP3      6410            0.0000000000
     44131      6611  TIP3      OH2            -7.3031938698       -2.6760401833      -36.7682557154  TIP3      6411            0.0000000000
     44132      6611  TIP3      H1             -7.9406060737       -2.3004669807      -37.4060825861  TIP3      6411            0.0000000000
     44133      6611  TIP3      H2             -6.4893914641       -2.2669820543      -37.1185149836  TIP3      6411            0.0000000000
     44134      6612  TIP3      OH2            -4.6934301954       -1.2585626293      -37.1840114370  TIP3      6412            0.0000000000
     44135      6612  TIP3      H1             -4.5844703916       -0.4024292504      -37.6389672109  TIP3      6412            0.0000000000
     44136      6612  TIP3      H2             -4.3493434594       -1.8396592103      -37.9142806890  TIP3      6412            0.0000000000
     44137      6613  TIP3      OH2           -16.9477769448       -2.2762800549      -39.5753495781  TIP3      6413            0.0000000000
     44138      6613  TIP3      H1            -17.2254805675       -2.7899878190      -38.7842890182  TIP3      6413            0.0000000000
     44139      6613  TIP3      H2            -16.0514121407       -2.6393354645      -39.7576502367  TIP3      6413            0.0000000000
     44140      6614  TIP3      OH2           -14.7595347578       -3.2968742687      -40.8253197040  TIP3      6414            0.0000000000
     44141      6614  TIP3      H1            -14.8489618518       -4.2482309542      -40.6054343353  TIP3      6414            0.0000000000
     44142      6614  TIP3      H2            -13.8837920212       -3.1067563008      -40.4190683617  TIP3      6414            0.0000000000
     44143      6615  TIP3      OH2           -12.4119045948       -3.2210923604      -39.5893390882  TIP3      6415            0.0000000000
     44144      6615  TIP3      H1            -12.1376345537       -4.1203921639      -39.8392774059  TIP3      6415            0.0000000000
     44145      6615  TIP3      H2            -12.2710643687       -3.2571825557      -38.6240038802  TIP3      6415            0.0000000000
     44146      6616  TIP3      OH2            -8.8968686062      -17.4198293580      -40.7806249601  TIP3      6416            0.0000000000
     44147      6616  TIP3      H1             -9.5942739705      -17.8346435704      -40.2539032004  TIP3      6416            0.0000000000
     44148      6616  TIP3      H2             -8.7645550789      -18.0948245188      -41.4596733962  TIP3      6416            0.0000000000
     44149      6617  TIP3      OH2            -3.7185940728      -19.2919858128      -40.9709083347  TIP3      6417            0.0000000000
     44150      6617  TIP3      H1             -3.0824338146      -18.7332517708      -41.4607265495  TIP3      6417            0.0000000000
     44151      6617  TIP3      H2             -4.5839375196      -18.9998793244      -41.3387593919  TIP3      6417            0.0000000000
     44152      6618  TIP3      OH2            -2.0045330118      -17.9364817924      -42.6341256035  TIP3      6418            0.0000000000
     44153      6618  TIP3      H1             -1.4219599614      -18.5981894994      -43.0794302940  TIP3      6418            0.0000000000
     44154      6618  TIP3      H2             -1.3640142544      -17.1963510410      -42.5119464390  TIP3      6418            0.0000000000
     44155      6619  TIP3      OH2           -16.4717703452      -18.9684618917      -42.9650394516  TIP3      6419            0.0000000000
     44156      6619  TIP3      H1            -17.3120945580      -19.0837900303      -43.4423676925  TIP3      6419            0.0000000000
     44157      6619  TIP3      H2            -16.0823354624      -19.8680811307      -43.0818011374  TIP3      6419            0.0000000000
     44158      6620  TIP3      OH2           -17.7605390509      -19.0019779868      -47.2826563614  TIP3      6420            0.0000000000
     44159      6620  TIP3      H1            -17.2065779878      -18.3189733074      -47.7334017429  TIP3      6420            0.0000000000
     44160      6620  TIP3      H2            -18.2346286491      -18.4736166390      -46.6187471417  TIP3      6420            0.0000000000
     44161      6621  TIP3      OH2           -12.1250954935      -19.3111687173      -43.1149957950  TIP3      6421            0.0000000000
     44162      6621  TIP3      H1            -11.2720132090      -19.0164859009      -43.4520285714  TIP3      6421            0.0000000000
     44163      6621  TIP3      H2            -12.3254925866      -18.6596047850      -42.4313218826  TIP3      6421            0.0000000000
     44164      6622  TIP3      OH2            -6.2229558459      -18.8748031456      -42.0358959489  TIP3      6422            0.0000000000
     44165      6622  TIP3      H1             -6.6530011025      -18.7875396955      -42.8919181441  TIP3      6422            0.0000000000
     44166      6622  TIP3      H2             -6.7359829992      -19.6029467271      -41.6047656209  TIP3      6422            0.0000000000
     44167      6623  TIP3      OH2            -4.9376495208      -18.9122195991      -45.7461505569  TIP3      6423            0.0000000000
     44168      6623  TIP3      H1             -5.6801795362      -18.3092295302      -45.8985874395  TIP3      6423            0.0000000000
     44169      6623  TIP3      H2             -5.3573566493      -19.6535598037      -45.2545606180  TIP3      6423            0.0000000000
     44170      6624  TIP3      OH2           -17.7873078015       -2.9153839326      -46.2375480407  TIP3      6424            0.0000000000
     44171      6624  TIP3      H1            -18.6924481680       -2.9161156167      -46.6015504688  TIP3      6424            0.0000000000
     44172      6624  TIP3      H2            -17.5566435659       -1.9752304540      -46.3609994976  TIP3      6424            0.0000000000
     44173      6625  TIP3      OH2           -16.1578733263      -17.4886899910      -48.7953868614  TIP3      6425            0.0000000000
     44174      6625  TIP3      H1            -15.4734960716      -18.1769578745      -48.7522529849  TIP3      6425            0.0000000000
     44175      6625  TIP3      H2            -15.7527841542      -16.7445960201      -48.3362553561  TIP3      6425            0.0000000000
     44176      6626  TIP3      OH2           -10.7241417753      -16.4595803454      -46.4126997088  TIP3      6426            0.0000000000
     44177      6626  TIP3      H1            -10.3390167150      -17.0890955594      -45.7790132158  TIP3      6426            0.0000000000
     44178      6626  TIP3      H2            -10.6179524012      -15.6371942898      -45.8857634904  TIP3      6426            0.0000000000
     44179      6627  TIP3      OH2            -9.0999855661       -1.7063553390      -48.1814721955  TIP3      6427            0.0000000000
     44180      6627  TIP3      H1             -8.1377903200       -1.4663004418      -48.1145861634  TIP3      6427            0.0000000000
     44181      6627  TIP3      H2             -9.0822779039       -2.1397276638      -49.0538989998  TIP3      6427            0.0000000000
     44182      6628  TIP3      OH2            -2.4687658444       -2.4425354418      -44.9674965431  TIP3      6428            0.0000000000
     44183      6628  TIP3      H1             -2.4977288456       -3.3291572474      -45.4056953274  TIP3      6428            0.0000000000
     44184      6628  TIP3      H2             -2.6142971726       -1.8506995435      -45.7322198925  TIP3      6428            0.0000000000
     44185      6629  TIP3      OH2           -16.7530966490      -18.0260206493      -33.4487858506  TIP3      6429            0.0000000000
     44186      6629  TIP3      H1            -17.2174522345      -18.8828706493      -33.4341103531  TIP3      6429            0.0000000000
     44187      6629  TIP3      H2            -15.9562132179      -18.2141712805      -32.8958375590  TIP3      6429            0.0000000000
     44188      6630  TIP3      OH2           -14.8020806083      -18.7893851342      -31.6878993631  TIP3      6430            0.0000000000
     44189      6630  TIP3      H1            -13.8953593029      -19.0665258102      -31.8793855084  TIP3      6430            0.0000000000
     44190      6630  TIP3      H2            -15.1639030644      -19.6046305393      -31.2694483705  TIP3      6430            0.0000000000
     44191      6631  TIP3      OH2           -15.8099497209       -1.6792298137      -48.7220188128  TIP3      6431            0.0000000000
     44192      6631  TIP3      H1            -16.3992122746       -1.4128875047      -47.9945232676  TIP3      6431            0.0000000000
     44193      6631  TIP3      H2            -15.3262207255       -2.4277350901      -48.3667304340  TIP3      6431            0.0000000000
     44194      6632  TIP3      OH2            -6.2451937580      -19.4833738321      -31.6158887856  TIP3      6432            0.0000000000
     44195      6632  TIP3      H1             -6.5388162925      -20.0510769048      -30.8794951487  TIP3      6432            0.0000000000
     44196      6632  TIP3      H2             -5.3518146968      -19.8319385255      -31.8209420152  TIP3      6432            0.0000000000
     44197      6633  TIP3      OH2            -2.9284112097       -3.2197198304      -33.2972621820  TIP3      6433            0.0000000000
     44198      6633  TIP3      H1             -3.5088368426       -3.1990551861      -34.0947655587  TIP3      6433            0.0000000000
     44199      6633  TIP3      H2             -3.2752932737       -2.4444253034      -32.8338043258  TIP3      6433            0.0000000000
     44200      6634  TIP3      OH2            11.5669517576       -9.3993670688      -43.1883386730  TIP3      6434            0.0000000000
     44201      6634  TIP3      H1             11.4635475240       -8.5360018474      -42.7491621154  TIP3      6434            0.0000000000
     44202      6634  TIP3      H2             10.8258876259       -9.3725367105      -43.8150923603  TIP3      6434            0.0000000000
     44203      6635  TIP3      OH2            10.4404317197      -10.6729605644      -39.7883309143  TIP3      6435            0.0000000000
     44204      6635  TIP3      H1             10.4320379551      -11.0081559672      -38.8672414392  TIP3      6435            0.0000000000
     44205      6635  TIP3      H2              9.7400238610      -11.2101331534      -40.1986527953  TIP3      6435            0.0000000000
     44206      6636  TIP3      OH2             2.2696169511      -10.8117238903      -38.3917424739  TIP3      6436            0.0000000000
     44207      6636  TIP3      H1              2.2804635664      -11.5311404329      -37.7306269370  TIP3      6436            0.0000000000
     44208      6636  TIP3      H2              3.0866611136      -10.3382583075      -38.1865601869  TIP3      6436            0.0000000000
     44209      6637  TIP3      OH2            13.4968734920       -7.4196927968      -41.1272836829  TIP3      6437            0.0000000000
     44210      6637  TIP3      H1             13.3143952023       -8.1786671315      -40.5507576577  TIP3      6437            0.0000000000
     44211      6637  TIP3      H2             13.6968409714       -6.7314072125      -40.4674617424  TIP3      6437            0.0000000000
     44212      6638  TIP3      OH2             3.4535279469       -5.9772296291      -39.8462212407  TIP3      6438            0.0000000000
     44213      6638  TIP3      H1              3.0605615358       -6.8444687526      -40.0700281702  TIP3      6438            0.0000000000
     44214      6638  TIP3      H2              4.3804490838       -6.1985959455      -40.0555712980  TIP3      6438            0.0000000000
     44215      6639  TIP3      OH2             0.2352418974      -12.6512645954      -44.0987152794  TIP3      6439            0.0000000000
     44216      6639  TIP3      H1             -0.1639454562      -11.7796250532      -43.9236287857  TIP3      6439            0.0000000000
     44217      6639  TIP3      H2             -0.1943833412      -12.8791716897      -44.9490404448  TIP3      6439            0.0000000000
     44218      6640  TIP3      OH2             0.6870017112      -10.2666457618      -41.6198908908  TIP3      6440            0.0000000000
     44219      6640  TIP3      H1              1.1537243698      -11.1378758185      -41.6070455038  TIP3      6440            0.0000000000
     44220      6640  TIP3      H2              1.3009647561       -9.6761237556      -42.0724752967  TIP3      6440            0.0000000000
     44221      6641  TIP3      OH2            11.0588983094       -1.9370082411      -41.3130153894  TIP3      6441            0.0000000000
     44222      6641  TIP3      H1             11.7697047981       -2.5213671706      -41.6753515675  TIP3      6441            0.0000000000
     44223      6641  TIP3      H2             10.5379407785       -2.6103349299      -40.8546411277  TIP3      6441            0.0000000000
     44224      6642  TIP3      OH2             8.4082699412       -7.9075131762      -38.8347303591  TIP3      6442            0.0000000000
     44225      6642  TIP3      H1              8.7157062047       -8.3966053588      -39.5988623893  TIP3      6442            0.0000000000
     44226      6642  TIP3      H2              9.2814646812       -7.5962249439      -38.4880901641  TIP3      6442            0.0000000000
     44227      6643  TIP3      OH2            17.1661723192      -16.4111063234      -38.8356310674  TIP3      6443            0.0000000000
     44228      6643  TIP3      H1             17.2303528064      -15.8354345465      -38.0464726206  TIP3      6443            0.0000000000
     44229      6643  TIP3      H2             18.0029894398      -16.1761982678      -39.2766237151  TIP3      6443            0.0000000000
     44230      6644  TIP3      OH2            12.1927385230      -13.3924860136      -38.7398844416  TIP3      6444            0.0000000000
     44231      6644  TIP3      H1             12.3818939361      -14.3291406445      -38.5893730849  TIP3      6444            0.0000000000
     44232      6644  TIP3      H2             11.9346458475      -13.4327075646      -39.6844526464  TIP3      6444            0.0000000000
     44233      6645  TIP3      OH2             4.7935514966      -15.5994993051      -41.9839718590  TIP3      6445            0.0000000000
     44234      6645  TIP3      H1              4.9397322817      -14.8212790160      -42.5556639910  TIP3      6445            0.0000000000
     44235      6645  TIP3      H2              4.6389632466      -16.3110136217      -42.6382214710  TIP3      6445            0.0000000000
     44236      6646  TIP3      OH2            12.5521122114      -15.3026302602      -43.2068307922  TIP3      6446            0.0000000000
     44237      6646  TIP3      H1             13.0458551073      -15.6679952530      -42.4289287606  TIP3      6446            0.0000000000
     44238      6646  TIP3      H2             13.2094382208      -14.6887019237      -43.5663621767  TIP3      6446            0.0000000000
     44239      6647  TIP3      OH2             1.4273573485      -12.8753112990      -41.0717434263  TIP3      6447            0.0000000000
     44240      6647  TIP3      H1              2.0446349808      -13.0554988054      -40.3400386983  TIP3      6447            0.0000000000
     44241      6647  TIP3      H2              1.6681162413      -13.5616275225      -41.7069270905  TIP3      6447            0.0000000000
     44242      6648  TIP3      OH2             6.5675202604      -11.3455873400      -41.4788191071  TIP3      6448            0.0000000000
     44243      6648  TIP3      H1              7.4762676009      -11.6006760939      -41.2198812466  TIP3      6448            0.0000000000
     44244      6648  TIP3      H2              6.2135570264      -12.2185409374      -41.7221074218  TIP3      6448            0.0000000000
     44245      6649  TIP3      OH2            17.3626977523      -14.9569828649      -36.4848090293  TIP3      6449            0.0000000000
     44246      6649  TIP3      H1             16.9560759691      -14.0986095594      -36.7563663815  TIP3      6449            0.0000000000
     44247      6649  TIP3      H2             17.3997113460      -14.8031185907      -35.5218271607  TIP3      6449            0.0000000000
     44248      6650  TIP3      OH2             3.8322883639      -16.5564945278      -37.6592698730  TIP3      6450            0.0000000000
     44249      6650  TIP3      H1              3.5629007245      -15.9819027877      -38.3946011822  TIP3      6450            0.0000000000
     44250      6650  TIP3      H2              3.2343026191      -16.2394479349      -36.9468130692  TIP3      6450            0.0000000000
     44251      6651  TIP3      OH2            10.7458482742       -6.7712615126      -44.3460906769  TIP3      6451            0.0000000000
     44252      6651  TIP3      H1             10.5984950830       -6.7242937034      -45.3147866451  TIP3      6451            0.0000000000
     44253      6651  TIP3      H2             10.5885755323       -5.8470569933      -44.0919880305  TIP3      6451            0.0000000000
     44254      6652  TIP3      OH2             6.0499729615       -8.7957692097      -37.9348190105  TIP3      6452            0.0000000000
     44255      6652  TIP3      H1              5.5458757031       -8.0234124349      -37.5884805616  TIP3      6452            0.0000000000
     44256      6652  TIP3      H2              6.8335246413       -8.3502957980      -38.3321183348  TIP3      6452            0.0000000000
     44257      6653  TIP3      OH2            14.3073897344      -15.8149502078      -41.2097163355  TIP3      6453            0.0000000000
     44258      6653  TIP3      H1             14.3932360930      -16.6559703194      -40.7484448872  TIP3      6453            0.0000000000
     44259      6653  TIP3      H2             15.1805318947      -15.4221340749      -41.0601010496  TIP3      6453            0.0000000000
     44260      6654  TIP3      OH2             3.4908165937      -14.4962857817      -39.7794318209  TIP3      6454            0.0000000000
     44261      6654  TIP3      H1              4.2121855392      -13.9677856901      -39.3473923360  TIP3      6454            0.0000000000
     44262      6654  TIP3      H2              3.9574253071      -14.8344951856      -40.5714853404  TIP3      6454            0.0000000000
     44263      6655  TIP3      OH2             4.8644892582       -6.5588900406      -36.8371218891  TIP3      6455            0.0000000000
     44264      6655  TIP3      H1              4.7132349058       -5.8014164226      -37.4186061326  TIP3      6455            0.0000000000
     44265      6655  TIP3      H2              3.9696769947       -6.6348672023      -36.4050077491  TIP3      6455            0.0000000000
     44266      6656  TIP3      OH2             0.6052129178       -7.2983230046      -45.8914027375  TIP3      6456            0.0000000000
     44267      6656  TIP3      H1              0.5828479945       -6.7602975795      -46.7138226256  TIP3      6456            0.0000000000
     44268      6656  TIP3      H2              0.6755721212       -6.6141250298      -45.2013804984  TIP3      6456            0.0000000000
     44269      6657  TIP3      OH2            14.4605081199       -5.4220230416      -39.1693382213  TIP3      6457            0.0000000000
     44270      6657  TIP3      H1             13.5502274303       -5.1628066931      -38.9117972047  TIP3      6457            0.0000000000
     44271      6657  TIP3      H2             14.7284027073       -4.5911085125      -39.5943171442  TIP3      6457            0.0000000000
     44272      6658  TIP3      OH2            14.3868585070      -17.1360644978      -37.9022068134  TIP3      6458            0.0000000000
     44273      6658  TIP3      H1             13.6158528406      -17.0205384762      -38.4992498908  TIP3      6458            0.0000000000
     44274      6658  TIP3      H2             15.1014696431      -16.8192127552      -38.4942480278  TIP3      6458            0.0000000000
     44275      6659  TIP3      OH2             7.4471408559      -18.9858753458      -40.5328284872  TIP3      6459            0.0000000000
     44276      6659  TIP3      H1              7.1648974859      -19.8815619549      -40.2930475367  TIP3      6459            0.0000000000
     44277      6659  TIP3      H2              6.6098093543      -18.5060988820      -40.2849698219  TIP3      6459            0.0000000000
     44278      6660  TIP3      OH2            12.7931698615       -3.6640240461      -42.4098647645  TIP3      6460            0.0000000000
     44279      6660  TIP3      H1             12.9657944897       -4.5391775097      -42.8000896929  TIP3      6460            0.0000000000
     44280      6660  TIP3      H2             13.5945682169       -3.1752511735      -42.7174568977  TIP3      6460            0.0000000000
     44281      6661  TIP3      OH2            13.7828295290       -5.8016685055      -43.8588456457  TIP3      6461            0.0000000000
     44282      6661  TIP3      H1             13.6427573898       -6.4180466199      -44.6021111649  TIP3      6461            0.0000000000
     44283      6661  TIP3      H2             13.7263102362       -6.4230579333      -43.1027485237  TIP3      6461            0.0000000000
     44284      6662  TIP3      OH2            15.3615926324       -7.1521121106      -35.3028730867  TIP3      6462            0.0000000000
     44285      6662  TIP3      H1             15.6151290565       -7.8275987315      -35.9735865326  TIP3      6462            0.0000000000
     44286      6662  TIP3      H2             15.4762583891       -6.3553242484      -35.8584664232  TIP3      6462            0.0000000000
     44287      6663  TIP3      OH2            10.0405650143       -9.9977735666      -45.7371340124  TIP3      6463            0.0000000000
     44288      6663  TIP3      H1              9.5014607507       -9.1850638177      -45.8336451933  TIP3      6463            0.0000000000
     44289      6663  TIP3      H2             10.7743590519       -9.8807827256      -46.3668738787  TIP3      6463            0.0000000000
     44290      6664  TIP3      OH2            10.6039550718      -11.9679141730      -48.5912898062  TIP3      6464            0.0000000000
     44291      6664  TIP3      H1             11.2218193553      -11.4000718449      -48.0765116470  TIP3      6464            0.0000000000
     44292      6664  TIP3      H2             11.1977801277      -12.6995138381      -48.8637398852  TIP3      6464            0.0000000000
     44293      6665  TIP3      OH2            17.4111254270      -10.7063400222      -37.5456138294  TIP3      6465            0.0000000000
     44294      6665  TIP3      H1             16.8470238350       -9.9124866031      -37.4463320472  TIP3      6465            0.0000000000
     44295      6665  TIP3      H2             18.0333681985      -10.3648911739      -38.2245537619  TIP3      6465            0.0000000000
     44296      6666  TIP3      OH2            13.6409595624      -10.3343262254      -44.6146542213  TIP3      6466            0.0000000000
     44297      6666  TIP3      H1             12.9371881196       -9.9514476254      -44.0374658094  TIP3      6466            0.0000000000
     44298      6666  TIP3      H2             14.2845988479      -10.6706466664      -43.9506701381  TIP3      6466            0.0000000000
     44299      6667  TIP3      OH2            13.4012551204      -11.6577838807      -35.6598076259  TIP3      6467            0.0000000000
     44300      6667  TIP3      H1             13.3551755902      -10.7352701801      -35.3702659106  TIP3      6467            0.0000000000
     44301      6667  TIP3      H2             12.8084097587      -11.6337023302      -36.4272822014  TIP3      6467            0.0000000000
     44302      6668  TIP3      OH2             5.0564365329       -9.5163403071      -42.7513195975  TIP3      6468            0.0000000000
     44303      6668  TIP3      H1              4.7979449549       -9.7828417250      -43.6570908369  TIP3      6468            0.0000000000
     44304      6668  TIP3      H2              5.7002069457      -10.2195787236      -42.4995576664  TIP3      6468            0.0000000000
     44305      6669  TIP3      OH2             6.4022335406       -6.2568104208      -40.2294626299  TIP3      6469            0.0000000000
     44306      6669  TIP3      H1              6.5442353084       -6.3966134116      -41.1764452921  TIP3      6469            0.0000000000
     44307      6669  TIP3      H2              7.1652689429       -6.6850670907      -39.8064575285  TIP3      6469            0.0000000000
     44308      6670  TIP3      OH2             5.2207767602      -10.9315608623      -39.1964790740  TIP3      6470            0.0000000000
     44309      6670  TIP3      H1              5.6894792669      -10.8769872287      -40.0569276996  TIP3      6470            0.0000000000
     44310      6670  TIP3      H2              5.6300006823      -10.1782237253      -38.7048167455  TIP3      6470            0.0000000000
     44311      6671  TIP3      OH2            11.9501882067       -4.9679083628      -38.4884813795  TIP3      6471            0.0000000000
     44312      6671  TIP3      H1             11.6482988648       -4.4459260955      -37.7266999984  TIP3      6471            0.0000000000
     44313      6671  TIP3      H2             11.7544042799       -5.8801818843      -38.2045824959  TIP3      6471            0.0000000000
     44314      6672  TIP3      OH2             6.3986099515       -6.2351682221      -34.6527549506  TIP3      6472            0.0000000000
     44315      6672  TIP3      H1              5.7448303872       -5.6787608854      -34.1699106930  TIP3      6472            0.0000000000
     44316      6672  TIP3      H2              5.9548333101       -6.3010644922      -35.5307970103  TIP3      6472            0.0000000000
     44317      6673  TIP3      OH2            12.4034672793      -10.7095664132      -46.9618190569  TIP3      6473            0.0000000000
     44318      6673  TIP3      H1             12.8479623710      -10.5895929154      -46.0783442561  TIP3      6473            0.0000000000
     44319      6673  TIP3      H2             13.0378555412      -10.2408760665      -47.5588647728  TIP3      6473            0.0000000000
     44320      6674  TIP3      OH2             3.5260575222      -10.2725213026      -35.5421854530  TIP3      6474            0.0000000000
     44321      6674  TIP3      H1              3.6541417148       -9.3782553589      -35.2095222124  TIP3      6474            0.0000000000
     44322      6674  TIP3      H2              2.6624019455      -10.4974235458      -35.1475822882  TIP3      6474            0.0000000000
     44323      6675  TIP3      OH2            10.0020517756       -4.0088500176      -44.2062376367  TIP3      6475            0.0000000000
     44324      6675  TIP3      H1             10.2638107749       -3.7288040643      -43.3247338391  TIP3      6475            0.0000000000
     44325      6675  TIP3      H2              9.5840586709       -3.2143975273      -44.5924702985  TIP3      6475            0.0000000000
     44326      6676  TIP3      OH2             4.7233239615       -4.3640657454      -33.7202609742  TIP3      6476            0.0000000000
     44327      6676  TIP3      H1              4.5704558293       -4.0330402688      -34.6329778474  TIP3      6476            0.0000000000
     44328      6676  TIP3      H2              3.8032033449       -4.6260727524      -33.4873878607  TIP3      6476            0.0000000000
     44329      6677  TIP3      OH2            16.3822960960      -19.1703017874      -46.9174337707  TIP3      6477            0.0000000000
     44330      6677  TIP3      H1             15.4363561160      -19.1701718587      -46.6463613943  TIP3      6477            0.0000000000
     44331      6677  TIP3      H2             16.4960940305      -18.2294481373      -47.1145707786  TIP3      6477            0.0000000000
     44332      6678  TIP3      OH2             4.0715582091      -10.5970295121      -45.1705807878  TIP3      6478            0.0000000000
     44333      6678  TIP3      H1              3.7000737048       -9.7905332903      -45.5819008115  TIP3      6478            0.0000000000
     44334      6678  TIP3      H2              3.6603262477      -11.2996088210      -45.7008685990  TIP3      6478            0.0000000000
     44335      6679  TIP3      OH2            17.2033464106       -4.4416228269      -48.5540085366  TIP3      6479            0.0000000000
     44336      6679  TIP3      H1             17.5410055018       -3.5230344163      -48.4778818958  TIP3      6479            0.0000000000
     44337      6679  TIP3      H2             18.0146440356       -4.9770325023      -48.4957773431  TIP3      6479            0.0000000000
     44338      6680  TIP3      OH2             0.3699866516       -7.8529295960      -36.2847276244  TIP3      6480            0.0000000000
     44339      6680  TIP3      H1              0.0253447764       -7.9215644226      -37.1884081159  TIP3      6480            0.0000000000
     44340      6680  TIP3      H2              0.6580800539       -8.7823659292      -36.1486861295  TIP3      6480            0.0000000000
     44341      6681  TIP3      OH2             0.0309582255       -5.2145864650      -39.8278257548  TIP3      6481            0.0000000000
     44342      6681  TIP3      H1              0.9661676230       -5.2611775659      -39.5647222412  TIP3      6481            0.0000000000
     44343      6681  TIP3      H2             -0.2941252782       -4.4833316937      -39.2832810800  TIP3      6481            0.0000000000
     44344      6682  TIP3      OH2            18.1382699580       -4.4952793040      -33.8047560201  TIP3      6482            0.0000000000
     44345      6682  TIP3      H1             18.0485842168       -5.4359923057      -34.0150955013  TIP3      6482            0.0000000000
     44346      6682  TIP3      H2             17.2681860577       -4.3077460450      -33.3896732730  TIP3      6482            0.0000000000
     44347      6683  TIP3      OH2             8.9126115789       -5.1370423367      -34.8971723484  TIP3      6483            0.0000000000
     44348      6683  TIP3      H1              9.0473924268       -4.3011724864      -34.4284676557  TIP3      6483            0.0000000000
     44349      6683  TIP3      H2              7.9698291613       -5.3578810835      -34.7346660929  TIP3      6483            0.0000000000
     44350      6684  TIP3      OH2             9.4434610534       -1.3989494616      -45.4955424125  TIP3      6484            0.0000000000
     44351      6684  TIP3      H1              9.7001371906       -1.1879593730      -46.4179878776  TIP3      6484            0.0000000000
     44352      6684  TIP3      H2              9.5629810079       -0.5195193117      -45.0694872682  TIP3      6484            0.0000000000
     44353      6685  TIP3      OH2             3.2487662976       -2.5933202916      -43.2594946887  TIP3      6485            0.0000000000
     44354      6685  TIP3      H1              3.5219375865       -2.8554328768      -42.3472037238  TIP3      6485            0.0000000000
     44355      6685  TIP3      H2              2.3495199262       -2.9644681654      -43.2785225685  TIP3      6485            0.0000000000
     44356      6686  TIP3      OH2            12.4605566362       -1.6368602489      -47.9196836808  TIP3      6486            0.0000000000
     44357      6686  TIP3      H1             13.0159272800       -2.3309196940      -48.3416476640  TIP3      6486            0.0000000000
     44358      6686  TIP3      H2             12.6724964549       -1.8069746603      -46.9801636619  TIP3      6486            0.0000000000
     44359      6687  TIP3      OH2            12.1867602399       -2.0654411855      -45.1548056239  TIP3      6487            0.0000000000
     44360      6687  TIP3      H1             11.2189438884       -2.0019429504      -45.0746476588  TIP3      6487            0.0000000000
     44361      6687  TIP3      H2             12.3364268767       -2.9748718496      -44.8521952925  TIP3      6487            0.0000000000
     44362      6688  TIP3      OH2            14.9371276824      -13.2156623669      -33.3480948143  TIP3      6488            0.0000000000
     44363      6688  TIP3      H1             14.4203214190      -12.9014102213      -34.1149308792  TIP3      6488            0.0000000000
     44364      6688  TIP3      H2             15.1657987971      -14.1244588133      -33.6330589515  TIP3      6488            0.0000000000
     44365      6689  TIP3      OH2             2.5712344400       -6.6932634869      -35.5019085035  TIP3      6489            0.0000000000
     44366      6689  TIP3      H1              2.5814371493       -7.0606352011      -34.5837678105  TIP3      6489            0.0000000000
     44367      6689  TIP3      H2              1.6828891307       -6.9834476750      -35.8017461751  TIP3      6489            0.0000000000
     44368      6690  TIP3      OH2             5.1644852074      -17.9121063687      -39.6220615761  TIP3      6490            0.0000000000
     44369      6690  TIP3      H1              4.2636132823      -18.0068920457      -39.9914777399  TIP3      6490            0.0000000000
     44370      6690  TIP3      H2              4.9424410079      -17.4601584864      -38.7893296635  TIP3      6490            0.0000000000
     44371      6691  TIP3      OH2             9.9971800476      -18.5366706736      -36.4009348759  TIP3      6491            0.0000000000
     44372      6691  TIP3      H1             10.3859303290      -19.0540417875      -35.6668580648  TIP3      6491            0.0000000000
     44373      6691  TIP3      H2              9.0395265980      -18.5881118605      -36.1812254839  TIP3      6491            0.0000000000
     44374      6692  TIP3      OH2            12.8496888592      -14.3811312159      -35.0966586706  TIP3      6492            0.0000000000
     44375      6692  TIP3      H1             12.1706157896      -14.6459596045      -34.4231472781  TIP3      6492            0.0000000000
     44376      6692  TIP3      H2             12.4914392875      -13.5331607685      -35.4066707250  TIP3      6492            0.0000000000
     44377      6693  TIP3      OH2            14.0068637614       -9.5032132310      -48.5908894470  TIP3      6493            0.0000000000
     44378      6693  TIP3      H1             13.5995095468       -9.4451876664      -49.4960745503  TIP3      6493            0.0000000000
     44379      6693  TIP3      H2             14.9465904652       -9.3208466349      -48.8117769811  TIP3      6493            0.0000000000
     44380      6694  TIP3      OH2             9.6578279614      -15.9318904061      -48.4772778642  TIP3      6494            0.0000000000
     44381      6694  TIP3      H1              9.2017889421      -16.3438225175      -47.7077841393  TIP3      6494            0.0000000000
     44382      6694  TIP3      H2              8.9325076877      -15.9681000750      -49.1136217716  TIP3      6494            0.0000000000
     44383      6695  TIP3      OH2             5.2655575932      -13.3594450506      -38.1843975713  TIP3      6495            0.0000000000
     44384      6695  TIP3      H1              4.4884465309      -13.3408610431      -37.5898552310  TIP3      6495            0.0000000000
     44385      6695  TIP3      H2              5.2878167231      -12.4002789738      -38.4239952303  TIP3      6495            0.0000000000
     44386      6696  TIP3      OH2             4.9745586255      -13.1058017388      -43.2131656153  TIP3      6496            0.0000000000
     44387      6696  TIP3      H1              4.8956661177      -12.1466594332      -43.3491059976  TIP3      6496            0.0000000000
     44388      6696  TIP3      H2              5.5055243856      -13.3608055646      -44.0024484546  TIP3      6496            0.0000000000
     44389      6697  TIP3      OH2            10.8425493613      -12.2046400010      -44.4436665447  TIP3      6497            0.0000000000
     44390      6697  TIP3      H1             10.5563420758      -11.3973405014      -44.9381134089  TIP3      6497            0.0000000000
     44391      6697  TIP3      H2             11.4901283241      -12.5683952940      -45.0804751857  TIP3      6497            0.0000000000
     44392      6698  TIP3      OH2             9.6122306257      -12.1538286063      -33.1733136997  TIP3      6498            0.0000000000
     44393      6698  TIP3      H1              9.1740629292      -13.0140927837      -32.9721548559  TIP3      6498            0.0000000000
     44394      6698  TIP3      H2             10.3762143063      -12.2057183123      -32.5718883474  TIP3      6498            0.0000000000
     44395      6699  TIP3      OH2            11.8564991557      -12.9758983172      -41.6162125531  TIP3      6499            0.0000000000
     44396      6699  TIP3      H1             11.7060027175      -12.1180084114      -42.0606396565  TIP3      6499            0.0000000000
     44397      6699  TIP3      H2             11.7929191094      -13.5582681185      -42.3954993132  TIP3      6499            0.0000000000
     44398      6700  TIP3      OH2             2.8475349489      -13.2224490447      -36.8341470768  TIP3      6500            0.0000000000
     44399      6700  TIP3      H1              3.1070156516      -12.9159212955      -35.9511737823  TIP3      6500            0.0000000000
     44400      6700  TIP3      H2              2.4578117063      -14.0904872887      -36.6273508986  TIP3      6500            0.0000000000
     44401      6701  TIP3      OH2             6.2754153075      -15.7827597402      -49.7454342362  TIP3      6501            0.0000000000
     44402      6701  TIP3      H1              5.8064405783      -15.7937559537      -48.9041902758  TIP3      6501            0.0000000000
     44403      6701  TIP3      H2              5.7725804302      -15.1623471313      -50.2882425157  TIP3      6501            0.0000000000
     44404      6702  TIP3      OH2            -0.3744990975      -15.7135556357      -42.4196408717  TIP3      6502            0.0000000000
     44405      6702  TIP3      H1              0.1511189182      -15.8370196563      -41.6014937750  TIP3      6502            0.0000000000
     44406      6702  TIP3      H2             -0.2931968186      -14.7447546008      -42.5163327250  TIP3      6502            0.0000000000
     44407      6703  TIP3      OH2             0.8755442913      -15.2957144101      -47.1185915191  TIP3      6503            0.0000000000
     44408      6703  TIP3      H1              1.6580279995      -14.8523600796      -47.5105738124  TIP3      6503            0.0000000000
     44409      6703  TIP3      H2              0.3261674243      -14.4993157927      -47.0125452123  TIP3      6503            0.0000000000
     44410      6704  TIP3      OH2            10.8839181951      -11.5505679718      -37.3094190135  TIP3      6504            0.0000000000
     44411      6704  TIP3      H1             11.4035147919      -12.2250343309      -37.7968266022  TIP3      6504            0.0000000000
     44412      6704  TIP3      H2             10.2784825515      -12.1236060026      -36.7741298788  TIP3      6504            0.0000000000
     44413      6705  TIP3      OH2             8.0558054029      -15.5672015829      -42.2103651675  TIP3      6505            0.0000000000
     44414      6705  TIP3      H1              7.2503339867      -15.4073106078      -41.6954251668  TIP3      6505            0.0000000000
     44415      6705  TIP3      H2              8.6415215078      -16.0451853210      -41.5942410901  TIP3      6505            0.0000000000
     44416      6706  TIP3      OH2             2.1790675049      -14.6160624144      -43.5820727003  TIP3      6506            0.0000000000
     44417      6706  TIP3      H1              1.6707591301      -13.8179482337      -43.8599018664  TIP3      6506            0.0000000000
     44418      6706  TIP3      H2              3.0881097882      -14.2819392316      -43.4753781816  TIP3      6506            0.0000000000
     44419      6707  TIP3      OH2             6.0245321878      -13.9585769416      -45.6124122926  TIP3      6507            0.0000000000
     44420      6707  TIP3      H1              7.0024953760      -13.9622065603      -45.6129412287  TIP3      6507            0.0000000000
     44421      6707  TIP3      H2              5.7969871852      -13.3826264522      -46.3800847540  TIP3      6507            0.0000000000
     44422      6708  TIP3      OH2            12.2005767024      -16.3755667307      -39.1824094877  TIP3      6508            0.0000000000
     44423      6708  TIP3      H1             11.4814182523      -16.3151694455      -38.5353461284  TIP3      6508            0.0000000000
     44424      6708  TIP3      H2             11.7877666934      -16.8110542773      -39.9482028873  TIP3      6508            0.0000000000
     44425      6709  TIP3      OH2             4.9473308611      -12.6584084086      -47.8119462452  TIP3      6509            0.0000000000
     44426      6709  TIP3      H1              4.0440325276      -12.7560426807      -48.1687797725  TIP3      6509            0.0000000000
     44427      6709  TIP3      H2              5.4974458325      -12.7605140168      -48.6096224870  TIP3      6509            0.0000000000
     44428      6710  TIP3      OH2            15.2923661377       -0.6845689573      -32.5949703091  TIP3      6510            0.0000000000
     44429      6710  TIP3      H1             15.7120918228       -0.3958532294      -33.4310362465  TIP3      6510            0.0000000000
     44430      6710  TIP3      H2             15.9695011560       -0.3977681941      -31.9677638788  TIP3      6510            0.0000000000
     44431      6711  TIP3      OH2             2.7627502028       -8.0385364463      -33.1711273401  TIP3      6511            0.0000000000
     44432      6711  TIP3      H1              3.5577294225       -7.9857930414      -32.6046095518  TIP3      6511            0.0000000000
     44433      6711  TIP3      H2              2.0794420491       -8.3360330318      -32.5527213560  TIP3      6511            0.0000000000
     44434      6712  TIP3      OH2             8.8581326316      -12.8200886684      -40.5720694412  TIP3      6512            0.0000000000
     44435      6712  TIP3      H1              9.6584939246      -13.1241968062      -41.0269016475  TIP3      6512            0.0000000000
     44436      6712  TIP3      H2              8.6198852140      -13.5925688804      -40.0432254534  TIP3      6512            0.0000000000
     44437      6713  TIP3      OH2             4.1603787431      -17.3781827911      -43.9007429779  TIP3      6513            0.0000000000
     44438      6713  TIP3      H1              4.4230584817      -18.3042133602      -43.7350363124  TIP3      6513            0.0000000000
     44439      6713  TIP3      H2              4.7392057442      -17.2067055492      -44.6652176922  TIP3      6513            0.0000000000
     44440      6714  TIP3      OH2             7.5918399303      -14.6409597197      -38.0610011079  TIP3      6514            0.0000000000
     44441      6714  TIP3      H1              6.7968995259      -14.0679046608      -38.0268006360  TIP3      6514            0.0000000000
     44442      6714  TIP3      H2              8.2419153756      -14.0937280406      -37.6019188619  TIP3      6514            0.0000000000
     44443      6715  TIP3      OH2             8.2890876841       -7.8546360863      -46.0878375035  TIP3      6515            0.0000000000
     44444      6715  TIP3      H1              7.6248010177       -8.4588766560      -46.4921090778  TIP3      6515            0.0000000000
     44445      6715  TIP3      H2              7.8895674652       -7.7397908763      -45.1962788756  TIP3      6515            0.0000000000
     44446      6716  TIP3      OH2            15.6338037463       -8.6201760302      -37.4162592307  TIP3      6516            0.0000000000
     44447      6716  TIP3      H1             16.1237181991       -8.0882864495      -38.0938477009  TIP3      6516            0.0000000000
     44448      6716  TIP3      H2             14.7722581094       -8.6908000478      -37.8533927925  TIP3      6516            0.0000000000
     44449      6717  TIP3      OH2            12.1875014858      -15.2103409937      -48.0786108639  TIP3      6517            0.0000000000
     44450      6717  TIP3      H1             11.2089615335      -15.2405244171      -48.0959304863  TIP3      6517            0.0000000000
     44451      6717  TIP3      H2             12.3629653446      -14.3463514056      -47.6532042654  TIP3      6517            0.0000000000
     44452      6718  TIP3      OH2             9.2449737068       -7.8279577985      -35.1686087977  TIP3      6518            0.0000000000
     44453      6718  TIP3      H1              9.2844333145       -8.1094297466      -34.2474401503  TIP3      6518            0.0000000000
     44454      6718  TIP3      H2              9.1650201281       -6.8600440810      -35.0572019497  TIP3      6518            0.0000000000
     44455      6719  TIP3      OH2            12.6460717820      -13.2697689845      -46.3548345047  TIP3      6519            0.0000000000
     44456      6719  TIP3      H1             13.5142000376      -13.5391885882      -46.0078333862  TIP3      6519            0.0000000000
     44457      6719  TIP3      H2             12.8173916246      -12.3595841143      -46.6711042896  TIP3      6519            0.0000000000
     44458      6720  TIP3      OH2             3.4202623544       -8.6225072760      -40.6419528122  TIP3      6520            0.0000000000
     44459      6720  TIP3      H1              3.9453617313       -8.7746785117      -41.4570015956  TIP3      6520            0.0000000000
     44460      6720  TIP3      H2              3.6557416593       -9.3867796509      -40.0989858326  TIP3      6520            0.0000000000
     44461      6721  TIP3      OH2            10.4871716913       -6.5946778868      -47.1566987259  TIP3      6521            0.0000000000
     44462      6721  TIP3      H1             10.1393913135       -5.6844493134      -47.0690533013  TIP3      6521            0.0000000000
     44463      6721  TIP3      H2              9.6787700928       -7.1240038587      -46.9744233095  TIP3      6521            0.0000000000
     44464      6722  TIP3      OH2             0.6009896740      -10.6535011091      -35.4187569648  TIP3      6522            0.0000000000
     44465      6722  TIP3      H1              0.3802422227      -10.9928588566      -34.5339101582  TIP3      6522            0.0000000000
     44466      6722  TIP3      H2             -0.0944442923      -11.0616247134      -35.9630045333  TIP3      6522            0.0000000000
     44467      6723  TIP3      OH2             7.1585952906      -10.8013305268      -33.2701439241  TIP3      6523            0.0000000000
     44468      6723  TIP3      H1              6.7371409153      -11.3398629577      -33.9556491285  TIP3      6523            0.0000000000
     44469      6723  TIP3      H2              8.0693136931      -11.1719561928      -33.2756555493  TIP3      6523            0.0000000000
     44470      6724  TIP3      OH2            12.2448239462       -5.4451849324      -34.9206508978  TIP3      6524            0.0000000000
     44471      6724  TIP3      H1             11.4044028631       -5.2194803592      -35.3529598452  TIP3      6524            0.0000000000
     44472      6724  TIP3      H2             12.0585385734       -5.0841775283      -34.0282702989  TIP3      6524            0.0000000000
     44473      6725  TIP3      OH2            17.8219657462      -13.2744552903      -46.7348613147  TIP3      6525            0.0000000000
     44474      6725  TIP3      H1             17.0404437487      -13.4298313538      -47.3137756150  TIP3      6525            0.0000000000
     44475      6725  TIP3      H2             17.7982961417      -12.2972311057      -46.7151926109  TIP3      6525            0.0000000000
     44476      6726  TIP3      OH2            17.8308935406       -7.3876830610      -34.0707805033  TIP3      6526            0.0000000000
     44477      6726  TIP3      H1             16.9195707445       -7.3055707146      -34.4313966822  TIP3      6526            0.0000000000
     44478      6726  TIP3      H2             18.3811646280       -7.4409146830      -34.8862594486  TIP3      6526            0.0000000000
     44479      6727  TIP3      OH2            16.1389452847       -4.8605291369      -46.1172891959  TIP3      6527            0.0000000000
     44480      6727  TIP3      H1             15.2225352773       -5.1791292093      -46.1317892987  TIP3      6527            0.0000000000
     44481      6727  TIP3      H2             16.3530761311       -4.7235409472      -47.0600088493  TIP3      6527            0.0000000000
     44482      6728  TIP3      OH2            13.1445109749       -9.6632402843      -39.3544966181  TIP3      6528            0.0000000000
     44483      6728  TIP3      H1             12.2414877512       -9.9326339855      -39.6005480124  TIP3      6528            0.0000000000
     44484      6728  TIP3      H2             13.6615497660      -10.3802718796      -39.7722194270  TIP3      6528            0.0000000000
     44485      6729  TIP3      OH2             5.5848881046       -5.3113243448      -43.0040918565  TIP3      6529            0.0000000000
     44486      6729  TIP3      H1              5.8920684657       -4.4311332547      -43.3192381614  TIP3      6529            0.0000000000
     44487      6729  TIP3      H2              4.6722652570       -5.2808521292      -43.3229170264  TIP3      6529            0.0000000000
     44488      6730  TIP3      OH2             1.7068264692      -10.7551139223      -48.8322581001  TIP3      6530            0.0000000000
     44489      6730  TIP3      H1              2.2393480169      -10.0851659942      -48.3704611213  TIP3      6530            0.0000000000
     44490      6730  TIP3      H2              0.8264501392      -10.6509243719      -48.4150960969  TIP3      6530            0.0000000000
     44491      6731  TIP3      OH2             7.0222844774       -7.6455888347      -43.5855005195  TIP3      6531            0.0000000000
     44492      6731  TIP3      H1              6.5455922075       -6.7930502937      -43.4884794325  TIP3      6531            0.0000000000
     44493      6731  TIP3      H2              6.5017198195       -8.2514055691      -43.0279017834  TIP3      6531            0.0000000000
     44494      6732  TIP3      OH2             7.6560349454       -3.5020111035      -36.8697783375  TIP3      6532            0.0000000000
     44495      6732  TIP3      H1              8.2897101946       -2.8760835092      -37.2601186905  TIP3      6532            0.0000000000
     44496      6732  TIP3      H2              8.2351136374       -3.9947739292      -36.2503528257  TIP3      6532            0.0000000000
     44497      6733  TIP3      OH2             5.8756875211       -2.8206404883      -44.0092271484  TIP3      6533            0.0000000000
     44498      6733  TIP3      H1              4.9304596756       -2.6381021422      -43.8302734306  TIP3      6533            0.0000000000
     44499      6733  TIP3      H2              6.2828986617       -1.9583361033      -43.7681025593  TIP3      6533            0.0000000000
     44500      6734  TIP3      OH2            10.7278111813       -7.5619057563      -37.5746346119  TIP3      6534            0.0000000000
     44501      6734  TIP3      H1             10.2828976119       -7.8236195201      -36.7347754769  TIP3      6534            0.0000000000
     44502      6734  TIP3      H2             11.2114190403       -8.3809445974      -37.7702626334  TIP3      6534            0.0000000000
     44503      6735  TIP3      OH2            13.3286921923       -6.5272233687      -48.8028041213  TIP3      6535            0.0000000000
     44504      6735  TIP3      H1             13.6717970660       -6.7605594374      -47.9149689962  TIP3      6535            0.0000000000
     44505      6735  TIP3      H2             12.3999527423       -6.6889483585      -48.5940287124  TIP3      6535            0.0000000000
     44506      6736  TIP3      OH2            14.0578771362       -3.0819241461      -35.3387099610  TIP3      6536            0.0000000000
     44507      6736  TIP3      H1             13.1308239743       -3.3754122776      -35.4389286244  TIP3      6536            0.0000000000
     44508      6736  TIP3      H2             14.1505242790       -2.4151853685      -36.0654501424  TIP3      6536            0.0000000000
     44509      6737  TIP3      OH2            18.0541588416       -1.9675108320      -48.1265900783  TIP3      6537            0.0000000000
     44510      6737  TIP3      H1             18.6942491110       -1.2497879686      -48.3116222285  TIP3      6537            0.0000000000
     44511      6737  TIP3      H2             17.3962480917       -1.4427541229      -47.6080073094  TIP3      6537            0.0000000000
     44512      6738  TIP3      OH2             2.2419478100      -15.6973215136      -35.5279335645  TIP3      6538            0.0000000000
     44513      6738  TIP3      H1              1.8317273876      -15.1542161733      -34.8296044511  TIP3      6538            0.0000000000
     44514      6738  TIP3      H2              1.9289074643      -16.5804712219      -35.2768241684  TIP3      6538            0.0000000000
     44515      6739  TIP3      OH2            14.2302176310       -7.5043214779      -46.4528460082  TIP3      6539            0.0000000000
     44516      6739  TIP3      H1             13.9808235338       -8.4297715305      -46.5945546347  TIP3      6539            0.0000000000
     44517      6739  TIP3      H2             15.1954114407       -7.6131941505      -46.3543051112  TIP3      6539            0.0000000000
     44518      6740  TIP3      OH2             1.6902057047       -3.8324578111      -37.4148154600  TIP3      6540            0.0000000000
     44519      6740  TIP3      H1              2.3704688931       -4.5103217973      -37.3298341425  TIP3      6540            0.0000000000
     44520      6740  TIP3      H2              1.6991264771       -3.4561244400      -36.5281367288  TIP3      6540            0.0000000000
     44521      6741  TIP3      OH2             6.0309460594       -5.9048024397      -47.4701589840  TIP3      6541            0.0000000000
     44522      6741  TIP3      H1              6.9030867878       -6.2263920289      -47.1930902326  TIP3      6541            0.0000000000
     44523      6741  TIP3      H2              6.1017804531       -4.9516759702      -47.2135046859  TIP3      6541            0.0000000000
     44524      6742  TIP3      OH2             2.7914765471       -8.7334303163      -47.0413514599  TIP3      6542            0.0000000000
     44525      6742  TIP3      H1              2.0655599845       -8.2328062429      -46.6189791031  TIP3      6542            0.0000000000
     44526      6742  TIP3      H2              3.3002611535       -7.9924155984      -47.4302269297  TIP3      6542            0.0000000000
     44527      6743  TIP3      OH2            10.5736788953      -15.7567509374      -36.4916419801  TIP3      6543            0.0000000000
     44528      6743  TIP3      H1             11.4789626616      -15.6332034661      -36.1618995044  TIP3      6543            0.0000000000
     44529      6743  TIP3      H2             10.3984426034      -16.6953606694      -36.2771276538  TIP3      6543            0.0000000000
     44530      6744  TIP3      OH2            12.0531460609      -16.9143082288      -45.3215426713  TIP3      6544            0.0000000000
     44531      6744  TIP3      H1             12.0914349688      -16.2647378080      -46.0470991976  TIP3      6544            0.0000000000
     44532      6744  TIP3      H2             12.1982269209      -16.3641125208      -44.5143818878  TIP3      6544            0.0000000000
     44533      6745  TIP3      OH2             9.1609614050       -4.1029427156      -47.1759310326  TIP3      6545            0.0000000000
     44534      6745  TIP3      H1              8.4498993332       -3.9119348389      -46.5433882330  TIP3      6545            0.0000000000
     44535      6745  TIP3      H2              9.3798611716       -3.1901466097      -47.4572654939  TIP3      6545            0.0000000000
     44536      6746  TIP3      OH2             8.8297919795      -14.5247085933      -44.6122483522  TIP3      6546            0.0000000000
     44537      6746  TIP3      H1              9.4312228582      -13.7583242974      -44.5343970183  TIP3      6546            0.0000000000
     44538      6746  TIP3      H2              8.5778526823      -14.7204296258      -43.6911386417  TIP3      6546            0.0000000000
     44539      6747  TIP3      OH2             9.5468212946      -13.2485991405      -35.7458481569  TIP3      6547            0.0000000000
     44540      6747  TIP3      H1              9.5718321656      -12.9512722434      -34.8180627924  TIP3      6547            0.0000000000
     44541      6747  TIP3      H2              9.8507933105      -14.1799472678      -35.7223321368  TIP3      6547            0.0000000000
     44542      6748  TIP3      OH2             9.4246221339      -17.7194132457      -44.1341554986  TIP3      6548            0.0000000000
     44543      6748  TIP3      H1              9.0018562325      -16.9789385848      -43.6670606305  TIP3      6548            0.0000000000
     44544      6748  TIP3      H2             10.2803615778      -17.3159522104      -44.4154307678  TIP3      6548            0.0000000000
     44545      6749  TIP3      OH2             6.3812357840       -3.2992041324      -46.6615624003  TIP3      6549            0.0000000000
     44546      6749  TIP3      H1              6.6921358699       -2.4668475611      -47.0808198456  TIP3      6549            0.0000000000
     44547      6749  TIP3      H2              6.1620392883       -2.9859505065      -45.7595813944  TIP3      6549            0.0000000000
     44548      6750  TIP3      OH2             5.0547665466      -16.3466028493      -46.8013026820  TIP3      6550            0.0000000000
     44549      6750  TIP3      H1              5.2795539486      -15.5132927549      -46.3421348819  TIP3      6550            0.0000000000
     44550      6750  TIP3      H2              5.9375033240      -16.7378215581      -46.9144196193  TIP3      6550            0.0000000000
     44551      6751  TIP3      OH2            15.3755317094      -15.5373642095      -34.6354857727  TIP3      6551            0.0000000000
     44552      6751  TIP3      H1             14.4170908308      -15.3242255603      -34.7586723168  TIP3      6551            0.0000000000
     44553      6751  TIP3      H2             15.6923524393      -15.5469003404      -35.5624253714  TIP3      6551            0.0000000000
     44554      6752  TIP3      OH2            14.2333186263      -11.9836097421      -40.7250143598  TIP3      6552            0.0000000000
     44555      6752  TIP3      H1             13.4699561701      -12.5741174368      -40.8629511070  TIP3      6552            0.0000000000
     44556      6752  TIP3      H2             14.8976285127      -12.5647051733      -40.2868967701  TIP3      6552            0.0000000000
     44557      6753  TIP3      OH2             3.4668853044       -6.2420493211      -48.0312870307  TIP3      6553            0.0000000000
     44558      6753  TIP3      H1              4.3635717317       -6.0112223552      -47.6943170892  TIP3      6553            0.0000000000
     44559      6753  TIP3      H2              3.6614329348       -6.3427400110      -48.9801246503  TIP3      6553            0.0000000000
     44560      6754  TIP3      OH2             2.0855311752      -13.3934162071      -48.4197892458  TIP3      6554            0.0000000000
     44561      6754  TIP3      H1              2.0249076974      -12.4159076904      -48.4547141199  TIP3      6554            0.0000000000
     44562      6754  TIP3      H2              1.4438933901      -13.6472547143      -49.1058626456  TIP3      6554            0.0000000000
     44563      6755  TIP3      OH2            15.2522603548       -2.6689466150      -39.2494635156  TIP3      6555            0.0000000000
     44564      6755  TIP3      H1             15.1942269494       -1.9763763019      -39.9385321500  TIP3      6555            0.0000000000
     44565      6755  TIP3      H2             16.2252163913       -2.6204680794      -39.1014778250  TIP3      6555            0.0000000000
     44566      6756  TIP3      OH2             2.6432312736      -18.5426606694      -40.1570442565  TIP3      6556            0.0000000000
     44567      6756  TIP3      H1              2.4296177006      -18.7626249125      -41.0887927921  TIP3      6556            0.0000000000
     44568      6756  TIP3      H2              2.4042309733      -19.3946720699      -39.7236163863  TIP3      6556            0.0000000000
     44569      6757  TIP3      OH2             1.1397486490       -4.7369405220      -44.1140268423  TIP3      6557            0.0000000000
     44570      6757  TIP3      H1              0.3864488174       -4.1328892459      -44.1226585283  TIP3      6557            0.0000000000
     44571      6757  TIP3      H2              1.5891587122       -4.4053212271      -44.9046943308  TIP3      6557            0.0000000000
     44572      6758  TIP3      OH2             0.7059359359       -1.9008353852      -32.8849753015  TIP3      6558            0.0000000000
     44573      6758  TIP3      H1              1.4940874179       -2.0590877062      -32.3328797157  TIP3      6558            0.0000000000
     44574      6758  TIP3      H2              0.4405162305       -2.8152032314      -33.1194378224  TIP3      6558            0.0000000000
     44575      6759  TIP3      OH2             5.5309234904       -3.0010843337      -31.4225855004  TIP3      6559            0.0000000000
     44576      6759  TIP3      H1              6.3737413741       -3.4263399893      -31.1928868387  TIP3      6559            0.0000000000
     44577      6759  TIP3      H2              5.3810139985       -3.3474050753      -32.3304986421  TIP3      6559            0.0000000000
     44578      6760  TIP3      OH2             9.5586819294       -3.9434782625      -50.1740244154  TIP3      6560            0.0000000000
     44579      6760  TIP3      H1              8.8342905104       -4.5341003661      -49.9208404427  TIP3      6560            0.0000000000
     44580      6760  TIP3      H2             10.2357333619       -4.2834750288      -49.5591888251  TIP3      6560            0.0000000000
     44581      6761  TIP3      OH2            11.6776235723       -4.3937792632      -32.5178710981  TIP3      6561            0.0000000000
     44582      6761  TIP3      H1             11.3827550769       -5.2801312987      -32.1742252456  TIP3      6561            0.0000000000
     44583      6761  TIP3      H2             12.5511670477       -4.3422986909      -32.0769905529  TIP3      6561            0.0000000000
     44584      6762  TIP3      OH2            13.7787890381       -3.8437126179      -48.8429422398  TIP3      6562            0.0000000000
     44585      6762  TIP3      H1             13.7852217006       -4.8007302865      -49.0008898756  TIP3      6562            0.0000000000
     44586      6762  TIP3      H2             14.2399157881       -3.4483524968      -49.6207868368  TIP3      6562            0.0000000000
     44587      6763  TIP3      OH2             0.3973669468       -8.0213493463      -31.9134877157  TIP3      6563            0.0000000000
     44588      6763  TIP3      H1              0.1281509722       -8.9408406342      -31.7656282261  TIP3      6563            0.0000000000
     44589      6763  TIP3      H2             -0.1509983624       -7.8043267680      -32.7054387282  TIP3      6563            0.0000000000
     44590      6764  TIP3      OH2             5.1804607047       -8.2995501547      -49.6159787815  TIP3      6564            0.0000000000
     44591      6764  TIP3      H1              5.2169673605       -8.6361980898      -48.7050916962  TIP3      6564            0.0000000000
     44592      6764  TIP3      H2              5.7880021703       -7.5514999434      -49.5444137555  TIP3      6564            0.0000000000
     44593      6765  TIP3      OH2             7.2661134043       -8.0697456617      -32.9500546743  TIP3      6565            0.0000000000
     44594      6765  TIP3      H1              7.0578955363       -7.5037307979      -33.7322168799  TIP3      6565            0.0000000000
     44595      6765  TIP3      H2              7.1812003506       -8.9871123191      -33.3002773184  TIP3      6565            0.0000000000
     44596      6766  TIP3      OH2            12.9693082944       -8.3710123141      -34.9683394426  TIP3      6566            0.0000000000
     44597      6766  TIP3      H1             13.8579689900       -7.9382660346      -34.9231067692  TIP3      6566            0.0000000000
     44598      6766  TIP3      H2             12.4429083081       -7.5575697656      -34.8513255915  TIP3      6566            0.0000000000
     44599      6767  TIP3      OH2             1.4262089177      -11.1084933992      -32.3394635220  TIP3      6567            0.0000000000
     44600      6767  TIP3      H1              2.1438870662      -11.7348666250      -32.5230377249  TIP3      6567            0.0000000000
     44601      6767  TIP3      H2              1.8497957392      -10.5424778246      -31.6701019839  TIP3      6567            0.0000000000
     44602      6768  TIP3      OH2             6.5135589818       -9.5966899084      -47.1869779765  TIP3      6568            0.0000000000
     44603      6768  TIP3      H1              5.9888887129      -10.2091887090      -46.6545629565  TIP3      6568            0.0000000000
     44604      6768  TIP3      H2              6.9469058028      -10.2282800227      -47.8073815907  TIP3      6568            0.0000000000
     44605      6769  TIP3      OH2             5.3814847428      -12.1268203789      -35.3896061993  TIP3      6569            0.0000000000
     44606      6769  TIP3      H1              4.7045009755      -11.4199022158      -35.3110285033  TIP3      6569            0.0000000000
     44607      6769  TIP3      H2              6.0716770326      -11.6708544774      -35.9045693210  TIP3      6569            0.0000000000
     44608      6770  TIP3      OH2             7.6450946322      -11.4673444094      -49.1451772749  TIP3      6570            0.0000000000
     44609      6770  TIP3      H1              7.7210266971      -11.6269128358      -50.1020913566  TIP3      6570            0.0000000000
     44610      6770  TIP3      H2              8.5599716860      -11.6552839992      -48.8486582494  TIP3      6570            0.0000000000
     44611      6771  TIP3      OH2            10.8255104072       -9.1754990130      -31.8681246522  TIP3      6571            0.0000000000
     44612      6771  TIP3      H1             11.3677572903       -9.7229378349      -32.4639733094  TIP3      6571            0.0000000000
     44613      6771  TIP3      H2             10.1956235351       -9.8249095816      -31.5193809337  TIP3      6571            0.0000000000
     44614      6772  TIP3      OH2            16.4035344914       -9.4709282440       50.3293795196  TIP3      6572            0.0000000000
     44615      6772  TIP3      H1             16.5523120051       -9.8638166625       49.4615910831  TIP3      6572            0.0000000000
     44616      6772  TIP3      H2             16.7089685420       -8.5445796006       50.1868146688  TIP3      6572            0.0000000000
     44617      6773  TIP3      OH2             6.0296354046      -14.5265665319      -34.3428299844  TIP3      6573            0.0000000000
     44618      6773  TIP3      H1              6.1261441751      -15.2353974205      -35.0206680647  TIP3      6573            0.0000000000
     44619      6773  TIP3      H2              5.7749219349      -13.7433997265      -34.8843572600  TIP3      6573            0.0000000000
     44620      6774  TIP3      OH2             6.3056663934      -16.3768421119      -36.4467249203  TIP3      6574            0.0000000000
     44621      6774  TIP3      H1              6.7717684246      -15.9016823556      -37.1729132052  TIP3      6574            0.0000000000
     44622      6774  TIP3      H2              5.3790542576      -16.4332532977      -36.7618844100  TIP3      6574            0.0000000000
     44623      6775  TIP3      OH2             7.5618349102      -10.5399676353      -36.4277709279  TIP3      6575            0.0000000000
     44624      6775  TIP3      H1              8.4434747668      -10.1774631721      -36.5856285190  TIP3      6575            0.0000000000
     44625      6775  TIP3      H2              6.9861803697       -9.8403471803      -36.7977589678  TIP3      6575            0.0000000000
     44626      6776  TIP3      OH2            12.0746169420      -13.0600216151      -31.3051345120  TIP3      6576            0.0000000000
     44627      6776  TIP3      H1             12.3282971166      -13.9764779486      -31.4805382845  TIP3      6576            0.0000000000
     44628      6776  TIP3      H2             12.9130676769      -12.6063353544      -31.4807497365  TIP3      6576            0.0000000000
     44629      6777  TIP3      OH2            13.6557007444       -9.9251938603      -32.9226378689  TIP3      6577            0.0000000000
     44630      6777  TIP3      H1             13.2980649716       -9.3963998466      -33.6697685031  TIP3      6577            0.0000000000
     44631      6777  TIP3      H2             14.5888662957      -10.0342253002      -33.1912076706  TIP3      6577            0.0000000000
     44632      6778  TIP3      OH2             4.0506883909      -13.3152511316      -32.4295942769  TIP3      6578            0.0000000000
     44633      6778  TIP3      H1              3.4048622362      -14.0304413048      -32.2605700178  TIP3      6578            0.0000000000
     44634      6778  TIP3      H2              4.7449937415      -13.8057808191      -32.9007888559  TIP3      6578            0.0000000000
     44635      6779  TIP3      OH2             7.3123904672      -18.8217396968      -36.2501566137  TIP3      6579            0.0000000000
     44636      6779  TIP3      H1              6.9177384040      -17.9235755421      -36.3166223244  TIP3      6579            0.0000000000
     44637      6779  TIP3      H2              6.6334881199      -19.3405304968      -36.7080931539  TIP3      6579            0.0000000000
     44638      6780  TIP3      OH2             8.2933285414      -14.4258124043      -32.5641018146  TIP3      6580            0.0000000000
     44639      6780  TIP3      H1              8.0286078014      -14.7183828993      -31.6745243587  TIP3      6580            0.0000000000
     44640      6780  TIP3      H2              7.5090809564      -14.6183214626      -33.1150791800  TIP3      6580            0.0000000000
     44641      6781  TIP3      OH2            11.0273453801      -15.1609985027      -33.3335362963  TIP3      6581            0.0000000000
     44642      6781  TIP3      H1             10.0908608758      -15.2039290115      -33.0690345191  TIP3      6581            0.0000000000
     44643      6781  TIP3      H2             11.4642405704      -15.7430400468      -32.6721892042  TIP3      6581            0.0000000000
     44644      6782  TIP3      OH2            12.3886400566      -16.7731811328      -31.6748400259  TIP3      6582            0.0000000000
     44645      6782  TIP3      H1             12.4097855911      -17.7591675541      -31.6532245541  TIP3      6582            0.0000000000
     44646      6782  TIP3      H2             12.3061916674      -16.5293410097      -30.7294089590  TIP3      6582            0.0000000000
     44647      6783  TIP3      OH2             2.3641080209      -15.5886044545      -32.1334995316  TIP3      6583            0.0000000000
     44648      6783  TIP3      H1              2.2120995138      -16.3793871023      -32.6902799917  TIP3      6583            0.0000000000
     44649      6783  TIP3      H2              2.0205935705      -15.8713164529      -31.2686137314  TIP3      6583            0.0000000000
     44650      6784  TIP3      OH2             7.1724464095      -19.1687557042      -33.4100047689  TIP3      6584            0.0000000000
     44651      6784  TIP3      H1              7.7632842451      -19.9348319954      -33.4605199575  TIP3      6584            0.0000000000
     44652      6784  TIP3      H2              7.2169494702      -18.8740396310      -34.3434877988  TIP3      6584            0.0000000000
     44653      6785  TIP3      OH2             7.2498505836      -18.1445589881      -30.9504019482  TIP3      6585            0.0000000000
     44654      6785  TIP3      H1              7.2976961658      -18.6418199110      -31.8014974252  TIP3      6585            0.0000000000
     44655      6785  TIP3      H2              6.8543996515      -17.3204773441      -31.2482889481  TIP3      6585            0.0000000000
     44656      6786  TIP3      OH2             6.9153013543       -1.0049498013      -47.9460424831  TIP3      6586            0.0000000000
     44657      6786  TIP3      H1              7.8838337897       -0.9775433704      -47.9677685832  TIP3      6586            0.0000000000
     44658      6786  TIP3      H2              6.6638522841       -0.4367295921      -48.6876552249  TIP3      6586            0.0000000000
     44659      6787  TIP3      OH2             0.7858104372       -6.1355346205      -48.3895624509  TIP3      6587            0.0000000000
     44660      6787  TIP3      H1              1.7714641810       -6.1907480985      -48.2877906801  TIP3      6587            0.0000000000
     44661      6787  TIP3      H2              0.6446265921       -6.7562697121      -49.1178979188  TIP3      6587            0.0000000000
     44662      6788  TIP3      OH2            -0.4094946079       -1.1801217417      -43.8202813509  TIP3      6588            0.0000000000
     44663      6788  TIP3      H1             -1.2210265859       -1.6326778202      -44.1397490868  TIP3      6588            0.0000000000
     44664      6788  TIP3      H2             -0.1944684172       -1.7444640598      -43.0480181845  TIP3      6588            0.0000000000
     44665      6789  TIP3      OH2             0.3199006924       -2.8537568136      -41.7703153220  TIP3      6589            0.0000000000
     44666      6789  TIP3      H1             -0.1438417256       -3.6735456044      -41.5165475244  TIP3      6589            0.0000000000
     44667      6789  TIP3      H2              0.9468381805       -2.7229162095      -41.0243471743  TIP3      6589            0.0000000000
     44668      6790  TIP3      OH2            17.8791540917       -2.0044370159      -39.1627167975  TIP3      6590            0.0000000000
     44669      6790  TIP3      H1             18.0599759820       -1.9033624974      -38.2073243207  TIP3      6590            0.0000000000
     44670      6790  TIP3      H2             18.7612754066       -1.8263297250      -39.5286723736  TIP3      6590            0.0000000000
     44671      6791  TIP3      OH2            17.2080075721       -2.3499157068      -36.2553538399  TIP3      6591            0.0000000000
     44672      6791  TIP3      H1             16.9102380016       -3.2306096504      -36.5785587934  TIP3      6591            0.0000000000
     44673      6791  TIP3      H2             17.6486090675       -2.6179670599      -35.4278994303  TIP3      6591            0.0000000000
     44674      6792  TIP3      OH2            15.9788785091       -6.9285253882      -31.1455643336  TIP3      6592            0.0000000000
     44675      6792  TIP3      H1             15.0529441909       -6.8048911433      -30.8859618549  TIP3      6592            0.0000000000
     44676      6792  TIP3      H2             16.3226783845       -6.0157533354      -31.0952704347  TIP3      6592            0.0000000000
     44677      6793  TIP3      OH2            16.8487620669       -8.2699805388      -46.0218518719  TIP3      6593            0.0000000000
     44678      6793  TIP3      H1             17.7245372052       -7.8708891461      -45.8187619454  TIP3      6593            0.0000000000
     44679      6793  TIP3      H2             16.7175053255       -8.8680540204      -45.2670151668  TIP3      6593            0.0000000000
     44680      6794  TIP3      OH2            17.4610608998      -10.2401023802      -43.8083384204  TIP3      6594            0.0000000000
     44681      6794  TIP3      H1             16.6238385310      -10.7269849287      -43.6400691724  TIP3      6594            0.0000000000
     44682      6794  TIP3      H2             17.8631517315      -10.2511220917      -42.9194657874  TIP3      6594            0.0000000000
     44683      6795  TIP3      OH2            17.1324670315       -7.5229642476      -39.2723573773  TIP3      6595            0.0000000000
     44684      6795  TIP3      H1             17.8287532452       -8.2044796198      -39.4016015994  TIP3      6595            0.0000000000
     44685      6795  TIP3      H2             17.5622765911       -6.7158299507      -39.6161123303  TIP3      6595            0.0000000000
     44686      6796  TIP3      OH2            15.8851891765       -4.7716422527      -36.7824672018  TIP3      6596            0.0000000000
     44687      6796  TIP3      H1             15.2097860583       -4.2555350633      -36.2977408877  TIP3      6596            0.0000000000
     44688      6796  TIP3      H2             15.4263310445       -5.0333649213      -37.6114148217  TIP3      6596            0.0000000000
     44689      6797  TIP3      OH2            18.0104544784      -10.4157167167      -47.6653735025  TIP3      6597            0.0000000000
     44690      6797  TIP3      H1             17.2864337830      -10.1791787316      -48.2932053837  TIP3      6597            0.0000000000
     44691      6797  TIP3      H2             17.9667311001       -9.6522109803      -47.0615205644  TIP3      6597            0.0000000000
     44692      6798  TIP3      OH2            15.7229226024      -13.4346451118      -48.5458344207  TIP3      6598            0.0000000000
     44693      6798  TIP3      H1             15.4317736883      -12.9468113017      -49.3362210462  TIP3      6598            0.0000000000
     44694      6798  TIP3      H2             16.1385673209      -14.1806192633      -49.0011330705  TIP3      6598            0.0000000000
     44695      6799  TIP3      OH2            15.4081585317      -11.7099407134      -43.1131709310  TIP3      6599            0.0000000000
     44696      6799  TIP3      H1             15.2011180279      -12.6288536761      -43.3356869092  TIP3      6599            0.0000000000
     44697      6799  TIP3      H2             15.1462549231      -11.6732175860      -42.1647735179  TIP3      6599            0.0000000000
     44698      6800  TIP3      OH2             0.2725352318       -9.3053233649      -39.1264251973  TIP3      6600            0.0000000000
     44699      6800  TIP3      H1              0.2894213299       -9.6165337157      -40.0551218969  TIP3      6600            0.0000000000
     44700      6800  TIP3      H2              1.1319184643       -9.7108560151      -38.8685081712  TIP3      6600            0.0000000000
     44701      6801  TIP3      OH2            16.4377514352       -9.8056165056      -33.7514866247  TIP3      6601            0.0000000000
     44702      6801  TIP3      H1             16.8101590140      -10.7165325332      -33.7834122169  TIP3      6601            0.0000000000
     44703      6801  TIP3      H2             17.1755963394       -9.2674206372      -34.0735951219  TIP3      6601            0.0000000000
     44704      6802  TIP3      OH2            17.4345071358      -12.3204276834      -33.5876946869  TIP3      6602            0.0000000000
     44705      6802  TIP3      H1             16.5046655640      -12.5642117972      -33.3649744653  TIP3      6602            0.0000000000
     44706      6802  TIP3      H2             17.9249155574      -13.1342896566      -33.3367850190  TIP3      6602            0.0000000000
     44707      6803  TIP3      OH2            15.5324898216      -15.8544746810      -50.1191829069  TIP3      6603            0.0000000000
     44708      6803  TIP3      H1             16.0963950558      -16.2670614773      -49.4390342540  TIP3      6603            0.0000000000
     44709      6803  TIP3      H2             14.6442945638      -15.9257739283      -49.7308929990  TIP3      6603            0.0000000000
     44710      6804  TIP3      OH2            14.8195871146      -14.1706491896      -44.9342681959  TIP3      6604            0.0000000000
     44711      6804  TIP3      H1             15.0364451212      -15.1048638512      -44.7139901424  TIP3      6604            0.0000000000
     44712      6804  TIP3      H2             15.6787568920      -13.9003653847      -45.2890797192  TIP3      6604            0.0000000000
     44713      6805  TIP3      OH2            15.9787820997      -13.6442713265      -39.4309229028  TIP3      6605            0.0000000000
     44714      6805  TIP3      H1             16.9563906528      -13.5163345200      -39.3321475747  TIP3      6605            0.0000000000
     44715      6805  TIP3      H2             15.7277755248      -13.6127569438      -38.4978799245  TIP3      6605            0.0000000000
     44716      6806  TIP3      OH2            15.8145018778      -12.8500206570      -36.8591045364  TIP3      6606            0.0000000000
     44717      6806  TIP3      H1             14.8870129064      -12.5566736093      -36.7584746318  TIP3      6606            0.0000000000
     44718      6806  TIP3      H2             16.2818942023      -12.0101377927      -37.0731413853  TIP3      6606            0.0000000000
     44719      6807  TIP3      OH2             0.1130556390      -14.6493162178      -33.4288773521  TIP3      6607            0.0000000000
     44720      6807  TIP3      H1              0.9237752693      -14.6052945813      -32.8859045258  TIP3      6607            0.0000000000
     44721      6807  TIP3      H2             -0.3995455578      -15.3209129277      -32.9374096586  TIP3      6607            0.0000000000
     44722      6808  TIP3      OH2            17.8967889801      -19.3070170436      -31.3908926010  TIP3      6608            0.0000000000
     44723      6808  TIP3      H1             18.2716340607      -19.8126381535      -32.1353382869  TIP3      6608            0.0000000000
     44724      6808  TIP3      H2             17.7088834324      -18.4642308137      -31.8623143571  TIP3      6608            0.0000000000
     44725      6809  TIP3      OH2            15.7806040925      -16.6743860914      -44.6115485174  TIP3      6609            0.0000000000
     44726      6809  TIP3      H1             16.2024496620      -17.1705154658      -43.8701692912  TIP3      6609            0.0000000000
     44727      6809  TIP3      H2             15.2446148198      -17.3736263358      -45.0140333241  TIP3      6609            0.0000000000
     44728      6810  TIP3      OH2             1.2669280069      -16.0871742200      -40.2916080391  TIP3      6610            0.0000000000
     44729      6810  TIP3      H1              1.6514706150      -16.9667644384      -40.1123274445  TIP3      6610            0.0000000000
     44730      6810  TIP3      H2              2.0339089296      -15.5117181643      -40.1061941330  TIP3      6610            0.0000000000
     44731      6811  TIP3      OH2            -0.3608779771      -13.0675606212      -39.1700379142  TIP3      6611            0.0000000000
     44732      6811  TIP3      H1              0.2235911388      -13.2581570346      -39.9323435251  TIP3      6611            0.0000000000
     44733      6811  TIP3      H2              0.0238106310      -12.2365788175      -38.8649292107  TIP3      6611            0.0000000000
     44734      6812  TIP3      OH2            17.0346343999      -17.0977777502      -32.7927045942  TIP3      6612            0.0000000000
     44735      6812  TIP3      H1             16.3205436573      -16.4488850561      -32.9020081233  TIP3      6612            0.0000000000
     44736      6812  TIP3      H2             17.2008919527      -17.2690630857      -33.7366400103  TIP3      6612            0.0000000000
     44737      6813  TIP3      OH2            17.5001272016      -16.6185657154      -48.2171445872  TIP3      6613            0.0000000000
     44738      6813  TIP3      H1             17.9917943494      -17.1389305681      -48.8676291940  TIP3      6613            0.0000000000
     44739      6813  TIP3      H2             18.2024683935      -15.9860439096      -47.9538558172  TIP3      6613            0.0000000000
     44740      6814  TIP3      OH2            -0.1613090097      -16.9015887076      -45.2169759294  TIP3      6614            0.0000000000
     44741      6814  TIP3      H1             -1.0956710198      -16.6631201856      -45.0815180698  TIP3      6614            0.0000000000
     44742      6814  TIP3      H2              0.0019453750      -16.4233074463      -46.0524044372  TIP3      6614            0.0000000000
     44743      6815  TIP3      OH2            14.5861885831       -1.9063029023      -43.1753869517  TIP3      6615            0.0000000000
     44744      6815  TIP3      H1             15.3099025680       -2.0834062504      -43.8131621656  TIP3      6615            0.0000000000
     44745      6815  TIP3      H2             15.0185920978       -1.3793917214      -42.4709203101  TIP3      6615            0.0000000000
     44746      6816  TIP3      OH2            -0.1752981130      -18.2843104659      -36.9213253988  TIP3      6616            0.0000000000
     44747      6816  TIP3      H1             -0.7399524808      -18.5774431551      -36.1756248902  TIP3      6616            0.0000000000
     44748      6816  TIP3      H2             -0.7371057766      -17.6224902956      -37.3554549184  TIP3      6616            0.0000000000
     44749      6817  TIP3      OH2             2.2335106320       -5.1208807773      -32.9665004497  TIP3      6617            0.0000000000
     44750      6817  TIP3      H1              1.3709415218       -4.8952536976      -33.3499310086  TIP3      6617            0.0000000000
     44751      6817  TIP3      H2              2.0449355958       -5.8277806569      -32.3381286115  TIP3      6617            0.0000000000
     44752      6818  TIP3      OH2             5.0319602131       -3.5343946617      -36.2655101007  TIP3      6618            0.0000000000
     44753      6818  TIP3      H1              4.9973101552       -2.6405639880      -36.6730406201  TIP3      6618            0.0000000000
     44754      6818  TIP3      H2              5.9953844748       -3.6977656904      -36.3114204305  TIP3      6618            0.0000000000
     44755      6819  TIP3      OH2             9.1123876781       -2.3572609293      -33.8507069834  TIP3      6619            0.0000000000
     44756      6819  TIP3      H1              9.2490097304       -2.6752684308      -32.9392286103  TIP3      6619            0.0000000000
     44757      6819  TIP3      H2             10.0292969545       -2.1032571780      -34.1038926800  TIP3      6619            0.0000000000
     44758      6820  TIP3      OH2            11.4128081258       -0.9967801144      -34.3887563855  TIP3      6620            0.0000000000
     44759      6820  TIP3      H1             12.2396609589       -1.3091390732      -34.7731785621  TIP3      6620            0.0000000000
     44760      6820  TIP3      H2             11.7087347458       -0.6073739737      -33.5344816195  TIP3      6620            0.0000000000
     44761      6821  TIP3      OH2            16.5915233899      -18.8667619497      -35.0324218348  TIP3      6621            0.0000000000
     44762      6821  TIP3      H1             15.9901282580      -18.4094377828      -35.6294804583  TIP3      6621            0.0000000000
     44763      6821  TIP3      H2             16.5489908490      -19.7765603308      -35.3798555108  TIP3      6621            0.0000000000
     44764      6822  TIP3      OH2             2.3260683703       -0.6258494659      -36.5241108294  TIP3      6622            0.0000000000
     44765      6822  TIP3      H1              1.6501227911        0.0110359156      -36.8471354138  TIP3      6622            0.0000000000
     44766      6822  TIP3      H2              2.2625851311       -0.4925458829      -35.5658802224  TIP3      6622            0.0000000000
     44767      6823  TIP3      OH2             4.6611646620       -1.1753558392      -37.5511158942  TIP3      6623            0.0000000000
     44768      6823  TIP3      H1              3.7603651030       -0.8979327056      -37.2422850919  TIP3      6623            0.0000000000
     44769      6823  TIP3      H2              4.7691823866       -0.5899154836      -38.3174223066  TIP3      6623            0.0000000000
     44770      6824  TIP3      OH2             9.4170808900       -1.4317485143      -38.3185368531  TIP3      6624            0.0000000000
     44771      6824  TIP3      H1              8.8402397446       -0.8460572351      -38.8282841232  TIP3      6624            0.0000000000
     44772      6824  TIP3      H2              9.6989642352       -0.8135913551      -37.6120157615  TIP3      6624            0.0000000000
     44773      6825  TIP3      OH2            11.5372536713       -2.7770942119      -36.8709729370  TIP3      6625            0.0000000000
     44774      6825  TIP3      H1             10.9070205143       -2.3859168847      -37.5109341538  TIP3      6625            0.0000000000
     44775      6825  TIP3      H2             12.3171054318       -2.2456212650      -37.1197999051  TIP3      6625            0.0000000000
     44776      6826  TIP3      OH2            14.2535737881       -1.2245345546      -37.2345608315  TIP3      6626            0.0000000000
     44777      6826  TIP3      H1             14.3766413698       -0.3160687453      -37.5618913592  TIP3      6626            0.0000000000
     44778      6826  TIP3      H2             14.6476261460       -1.7270930500      -37.9900462834  TIP3      6626            0.0000000000
     44779      6827  TIP3      OH2             1.8712997713       -2.2930232596      -39.6060299220  TIP3      6627            0.0000000000
     44780      6827  TIP3      H1              1.6700217807       -2.8387195957      -38.8093200403  TIP3      6627            0.0000000000
     44781      6827  TIP3      H2              2.7770530320       -2.6074372099      -39.8337174466  TIP3      6627            0.0000000000
     44782      6828  TIP3      OH2             4.0769357372       -3.2791057245      -40.8067617304  TIP3      6628            0.0000000000
     44783      6828  TIP3      H1              3.9508607232       -4.2268118506      -40.5946830230  TIP3      6628            0.0000000000
     44784      6828  TIP3      H2              4.9680327230       -3.1307591502      -40.4169085363  TIP3      6628            0.0000000000
     44785      6829  TIP3      OH2             6.3948445140       -3.3036676687      -39.4653839596  TIP3      6629            0.0000000000
     44786      6829  TIP3      H1              6.6738978207       -4.2258520748      -39.5997340035  TIP3      6629            0.0000000000
     44787      6829  TIP3      H2              6.5847709272       -3.1898689345      -38.5191153822  TIP3      6629            0.0000000000
     44788      6830  TIP3      OH2             9.9157854300      -17.4195170085      -40.7988554019  TIP3      6630            0.0000000000
     44789      6830  TIP3      H1              9.1482292124      -17.7242049603      -40.2964811394  TIP3      6630            0.0000000000
     44790      6830  TIP3      H2             10.0497254479      -18.1719890334      -41.3881827501  TIP3      6630            0.0000000000
     44791      6831  TIP3      OH2            15.2048771295      -19.3940356680      -41.0393786696  TIP3      6631            0.0000000000
     44792      6831  TIP3      H1             15.8817032209      -18.8203583298      -41.4735455255  TIP3      6631            0.0000000000
     44793      6831  TIP3      H2             14.3763162296      -19.0202426547      -41.4159848065  TIP3      6631            0.0000000000
     44794      6832  TIP3      OH2            16.9023564388      -18.0650449737      -42.5691368882  TIP3      6632            0.0000000000
     44795      6832  TIP3      H1             17.5466590078      -18.6155319694      -43.0672089092  TIP3      6632            0.0000000000
     44796      6832  TIP3      H2             17.4478938054      -17.2617173442      -42.3805767226  TIP3      6632            0.0000000000
     44797      6833  TIP3      OH2             1.9291379004      -19.0955125691      -42.8035009882  TIP3      6633            0.0000000000
     44798      6833  TIP3      H1              1.1499319324      -19.3919885625      -43.3145301575  TIP3      6633            0.0000000000
     44799      6833  TIP3      H2              2.5759761009      -19.7857091172      -43.0739318191  TIP3      6633            0.0000000000
     44800      6834  TIP3      OH2             1.0477165452      -19.1762252338      -47.1722200614  TIP3      6634            0.0000000000
     44801      6834  TIP3      H1              1.5857687556      -18.5418053483      -47.7121568352  TIP3      6634            0.0000000000
     44802      6834  TIP3      H2              0.4908133246      -18.5961529535      -46.6378427267  TIP3      6634            0.0000000000
     44803      6835  TIP3      OH2             6.4730992705      -19.1352083816      -43.3372525646  TIP3      6635            0.0000000000
     44804      6835  TIP3      H1              7.3038677046      -19.2214045283      -43.8292959894  TIP3      6635            0.0000000000
     44805      6835  TIP3      H2              6.8003519334      -19.0247056138      -42.4286836339  TIP3      6635            0.0000000000
     44806      6836  TIP3      OH2            12.7006372206      -18.7758240029      -42.0540173762  TIP3      6636            0.0000000000
     44807      6836  TIP3      H1             12.2354444703      -18.6361968258      -42.8864355420  TIP3      6636            0.0000000000
     44808      6836  TIP3      H2             12.1834571158      -19.4917110408      -41.6104519330  TIP3      6636            0.0000000000
     44809      6837  TIP3      OH2            14.0336425111      -18.9695773891      -45.7715715872  TIP3      6637            0.0000000000
     44810      6837  TIP3      H1             13.3026023830      -18.3250086779      -45.7370944280  TIP3      6637            0.0000000000
     44811      6837  TIP3      H2             13.6648515326      -19.6725860360      -45.1947636490  TIP3      6637            0.0000000000
     44812      6838  TIP3      OH2             0.9685474592       -2.9501581456      -46.1972462084  TIP3      6638            0.0000000000
     44813      6838  TIP3      H1              0.0868458165       -2.9372994210      -46.6074556605  TIP3      6638            0.0000000000
     44814      6838  TIP3      H2              1.1915135158       -2.0111768433      -46.2993159153  TIP3      6638            0.0000000000
     44815      6839  TIP3      OH2             2.6359679817      -17.7789164633      -48.6547264494  TIP3      6639            0.0000000000
     44816      6839  TIP3      H1              3.4168987104      -18.3182423220      -48.8665034261  TIP3      6639            0.0000000000
     44817      6839  TIP3      H2              3.0239657988      -16.9458918915      -48.3625929281  TIP3      6639            0.0000000000
     44818      6840  TIP3      OH2             8.0882325916      -16.8520030889      -46.4778725010  TIP3      6640            0.0000000000
     44819      6840  TIP3      H1              8.5466858737      -17.4337708716      -45.8451345714  TIP3      6640            0.0000000000
     44820      6840  TIP3      H2              8.1032521066      -16.0150626092      -45.9754255379  TIP3      6640            0.0000000000
     44821      6841  TIP3      OH2             9.8352056852       -1.6844372834      -48.1870514112  TIP3      6641            0.0000000000
     44822      6841  TIP3      H1             10.8117079336       -1.5008078470      -48.1836982343  TIP3      6641            0.0000000000
     44823      6841  TIP3      H2              9.7776159547       -2.0751021105      -49.0781343155  TIP3      6641            0.0000000000
     44824      6842  TIP3      OH2            16.3975858438       -2.4648888319      -45.0155022499  TIP3      6642            0.0000000000
     44825      6842  TIP3      H1             16.3373739973       -3.3487070205      -45.4555519692  TIP3      6642            0.0000000000
     44826      6842  TIP3      H2             16.1315982151       -1.8443579263      -45.7228608815  TIP3      6642            0.0000000000
     44827      6843  TIP3      OH2             1.9634991958      -18.0969381267      -33.5620769514  TIP3      6643            0.0000000000
     44828      6843  TIP3      H1              1.5311532879      -18.9565858910      -33.5749488195  TIP3      6643            0.0000000000
     44829      6843  TIP3      H2              2.7670263770      -18.2411217361      -33.0162377399  TIP3      6643            0.0000000000
     44830      6844  TIP3      OH2             4.1177891779      -18.6858123242      -31.7865815659  TIP3      6644            0.0000000000
     44831      6844  TIP3      H1              5.0573292594      -18.8858909542      -31.9147356229  TIP3      6644            0.0000000000
     44832      6844  TIP3      H2              3.7520875294      -19.5475025596      -31.4873225926  TIP3      6644            0.0000000000
     44833      6845  TIP3      OH2             3.1397395787       -1.5703741521      -48.7372552389  TIP3      6645            0.0000000000
     44834      6845  TIP3      H1              2.5033252769       -1.3155692593      -48.0472183967  TIP3      6645            0.0000000000
     44835      6845  TIP3      H2              3.4153321463       -2.4514345300      -48.4655802193  TIP3      6645            0.0000000000
     44836      6846  TIP3      OH2            12.5789650960      -19.4517695468      -31.8458229938  TIP3      6646            0.0000000000
     44837      6846  TIP3      H1             12.5769388568      -19.7774524491      -30.9225946656  TIP3      6646            0.0000000000
     44838      6846  TIP3      H2             13.5043354838      -19.6745688658      -32.1175365692  TIP3      6646            0.0000000000
     44839      6847  TIP3      OH2            15.7824242778       -3.3204004737      -33.3080256074  TIP3      6647            0.0000000000
     44840      6847  TIP3      H1             15.1094996790       -3.3685170507      -34.0150533648  TIP3      6647            0.0000000000
     44841      6847  TIP3      H2             15.6173110407       -2.4257948369      -32.9579996250  TIP3      6647            0.0000000000
     44842      6848  TIP3      OH2            30.3971642266       -9.4779551199      -43.0734499788  TIP3      6648            0.0000000000
     44843      6848  TIP3      H1             30.3601538962       -8.6115193915      -42.6327230915  TIP3      6648            0.0000000000
     44844      6848  TIP3      H2             29.6497899167       -9.3821983669      -43.6926713938  TIP3      6648            0.0000000000
     44845      6849  TIP3      OH2            28.9571340418      -10.4975326302      -39.8024401917  TIP3      6649            0.0000000000
     44846      6849  TIP3      H1             29.1708902429      -10.9829082667      -38.9734855698  TIP3      6649            0.0000000000
     44847      6849  TIP3      H2             28.2919069707      -11.0718495001      -40.2335338183  TIP3      6649            0.0000000000
     44848      6850  TIP3      OH2            21.1966560408      -10.6824254162      -38.3042110834  TIP3      6650            0.0000000000
     44849      6850  TIP3      H1             21.2967420714      -11.4434495100      -37.7042526510  TIP3      6650            0.0000000000
     44850      6850  TIP3      H2             21.9767863934      -10.1634363737      -38.0765706917  TIP3      6650            0.0000000000
     44851      6851  TIP3      OH2            32.8907235346       -7.2781863184      -41.0746026965  TIP3      6651            0.0000000000
     44852      6851  TIP3      H1             32.7422377399       -8.0621992583      -40.5125584084  TIP3      6651            0.0000000000
     44853      6851  TIP3      H2             32.8045784980       -6.5586751818      -40.4229466425  TIP3      6651            0.0000000000
     44854      6852  TIP3      OH2            22.2797768787       -5.9450648595      -40.0532483584  TIP3      6652            0.0000000000
     44855      6852  TIP3      H1             21.9445829108       -6.8614754420      -40.1426608552  TIP3      6652            0.0000000000
     44856      6852  TIP3      H2             23.2321303523       -6.1580214206      -40.0897818593  TIP3      6652            0.0000000000
     44857      6853  TIP3      OH2            19.0189169265      -12.7152066403      -44.2698141125  TIP3      6653            0.0000000000
     44858      6853  TIP3      H1             18.6704885290      -11.8181469487      -44.1107714192  TIP3      6653            0.0000000000
     44859      6853  TIP3      H2             18.6884842932      -12.8996796141      -45.1660003166  TIP3      6653            0.0000000000
     44860      6854  TIP3      OH2            19.4515456654      -10.2848456182      -41.6892194274  TIP3      6654            0.0000000000
     44861      6854  TIP3      H1             19.9588602155      -11.1218481414      -41.5398199981  TIP3      6654            0.0000000000
     44862      6854  TIP3      H2             20.0852844585       -9.7170390213      -42.1499754259  TIP3      6654            0.0000000000
     44863      6855  TIP3      OH2            29.7981346847       -2.1220539139      -41.0395680493  TIP3      6655            0.0000000000
     44864      6855  TIP3      H1             30.4309511206       -2.6955589574      -41.5287409982  TIP3      6655            0.0000000000
     44865      6855  TIP3      H2             29.2540623514       -2.8036655535      -40.6297270367  TIP3      6655            0.0000000000
     44866      6856  TIP3      OH2            27.3505737127       -7.8981773533      -38.8206551483  TIP3      6656            0.0000000000
     44867      6856  TIP3      H1             27.5520717746       -8.4335849329      -39.5884452708  TIP3      6656            0.0000000000
     44868      6856  TIP3      H2             28.2499851131       -7.6224871303      -38.5460311435  TIP3      6656            0.0000000000
     44869      6857  TIP3      OH2            36.1665198193      -16.0658204801      -38.9198719042  TIP3      6657            0.0000000000
     44870      6857  TIP3      H1             36.1511904319      -15.4898358053      -38.1358865213  TIP3      6657            0.0000000000
     44871      6857  TIP3      H2             36.8652480409      -15.6531145071      -39.4535368608  TIP3      6657            0.0000000000
     44872      6858  TIP3      OH2            30.8482121096      -13.4168819622      -38.5730801650  TIP3      6658            0.0000000000
     44873      6858  TIP3      H1             31.2497500913      -14.2848353618      -38.4130850686  TIP3      6658            0.0000000000
     44874      6858  TIP3      H2             30.5996474703      -13.4796179198      -39.5086593974  TIP3      6658            0.0000000000
     44875      6859  TIP3      OH2            23.7636071160      -15.6213607391      -42.0483863725  TIP3      6659            0.0000000000
     44876      6859  TIP3      H1             23.9107526103      -14.7930535605      -42.5586692025  TIP3      6659            0.0000000000
     44877      6859  TIP3      H2             23.3337563260      -16.1587532956      -42.7431367388  TIP3      6659            0.0000000000
     44878      6860  TIP3      OH2            31.6471617170      -15.3642012238      -43.4312880394  TIP3      6660            0.0000000000
     44879      6860  TIP3      H1             32.1622197422      -15.4461476595      -42.5895516736  TIP3      6660            0.0000000000
     44880      6860  TIP3      H2             32.0408461447      -14.6001503324      -43.8623895228  TIP3      6660            0.0000000000
     44881      6861  TIP3      OH2            20.3654538706      -12.7300575258      -41.1369057684  TIP3      6661            0.0000000000
     44882      6861  TIP3      H1             20.9793520924      -13.2057793666      -40.5492603029  TIP3      6661            0.0000000000
     44883      6861  TIP3      H2             20.5987919528      -13.1631014090      -41.9866181817  TIP3      6661            0.0000000000
     44884      6862  TIP3      OH2            25.3611338837      -11.4378990302      -41.5118675029  TIP3      6662            0.0000000000
     44885      6862  TIP3      H1             26.1049805325      -11.9421375688      -41.1208866402  TIP3      6662            0.0000000000
     44886      6862  TIP3      H2             24.8911627801      -12.1497675557      -41.9820679335  TIP3      6662            0.0000000000
     44887      6863  TIP3      OH2            36.0241875922      -15.2755316938      -36.0804112779  TIP3      6663            0.0000000000
     44888      6863  TIP3      H1             35.5982332499      -14.4765568069      -36.4569922723  TIP3      6663            0.0000000000
     44889      6863  TIP3      H2             36.7646273866      -14.8741869134      -35.6005885188  TIP3      6663            0.0000000000
     44890      6864  TIP3      OH2            22.8508565132      -16.4227743539      -37.7473975981  TIP3      6664            0.0000000000
     44891      6864  TIP3      H1             22.4557458800      -15.9395066830      -38.4977583465  TIP3      6664            0.0000000000
     44892      6864  TIP3      H2             22.2011153182      -16.1719540888      -37.0480200128  TIP3      6664            0.0000000000
     44893      6865  TIP3      OH2            29.5843634388       -6.9349417024      -44.1807765339  TIP3      6665            0.0000000000
     44894      6865  TIP3      H1             29.4929536759       -6.9410438040      -45.1577193521  TIP3      6665            0.0000000000
     44895      6865  TIP3      H2             29.2815606301       -6.0214508416      -44.0095920068  TIP3      6665            0.0000000000
     44896      6866  TIP3      OH2            24.9454676360       -8.7397123051      -37.9395012720  TIP3      6666            0.0000000000
     44897      6866  TIP3      H1             24.4000050595       -7.9759327001      -37.6420241657  TIP3      6666            0.0000000000
     44898      6866  TIP3      H2             25.7081050848       -8.2614157936      -38.3517502801  TIP3      6666            0.0000000000
     44899      6867  TIP3      OH2            32.9493563790      -15.7346887876      -41.1484843013  TIP3      6667            0.0000000000
     44900      6867  TIP3      H1             32.7490278823      -16.4704312711      -40.5483494133  TIP3      6667            0.0000000000
     44901      6867  TIP3      H2             33.9077355494      -15.7667097780      -41.2302858199  TIP3      6667            0.0000000000
     44902      6868  TIP3      OH2            22.3514687189      -14.4747377674      -39.8063733149  TIP3      6668            0.0000000000
     44903      6868  TIP3      H1             22.9942159588      -13.8832914887      -39.3447686910  TIP3      6668            0.0000000000
     44904      6868  TIP3      H2             22.8780593417      -14.7470809695      -40.5893839033  TIP3      6668            0.0000000000
     44905      6869  TIP3      OH2            23.7007168222       -6.5393062331      -36.9389107867  TIP3      6669            0.0000000000
     44906      6869  TIP3      H1             23.6418921984       -5.6101944255      -37.2315474363  TIP3      6669            0.0000000000
     44907      6869  TIP3      H2             22.7878137901       -6.6059942279      -36.5502974287  TIP3      6669            0.0000000000
     44908      6870  TIP3      OH2            19.4939515447       -7.3124262656      -45.8906704210  TIP3      6670            0.0000000000
     44909      6870  TIP3      H1             19.4949609141       -6.6884354649      -46.6513026662  TIP3      6670            0.0000000000
     44910      6870  TIP3      H2             19.6153549482       -6.6936958722      -45.1470673315  TIP3      6670            0.0000000000
     44911      6871  TIP3      OH2            33.1449444797       -5.2479178571      -39.2009597305  TIP3      6671            0.0000000000
     44912      6871  TIP3      H1             32.2264790880       -5.0985339657      -38.8975405180  TIP3      6671            0.0000000000
     44913      6871  TIP3      H2             33.3375575088       -4.3612689181      -39.5411516869  TIP3      6671            0.0000000000
     44914      6872  TIP3      OH2            33.4758560924      -16.6754555413      -37.9954280021  TIP3      6672            0.0000000000
     44915      6872  TIP3      H1             32.7120647571      -16.2469122979      -38.4379057358  TIP3      6672            0.0000000000
     44916      6872  TIP3      H2             34.2259114803      -16.3563327924      -38.5252318741  TIP3      6672            0.0000000000
     44917      6873  TIP3      OH2            26.3053985265      -19.0561829370      -40.4908576996  TIP3      6673            0.0000000000
     44918      6873  TIP3      H1             26.0827012647      -19.9929712287      -40.4139648190  TIP3      6673            0.0000000000
     44919      6873  TIP3      H2             25.4288912967      -18.6627380796      -40.2298948100  TIP3      6673            0.0000000000
     44920      6874  TIP3      OH2            31.3961197831       -3.7544802711      -42.5024453427  TIP3      6674            0.0000000000
     44921      6874  TIP3      H1             31.5620205312       -4.6011295196      -42.9703523990  TIP3      6674            0.0000000000
     44922      6874  TIP3      H2             32.2969193318       -3.3722730936      -42.6198485093  TIP3      6674            0.0000000000
     44923      6875  TIP3      OH2            32.5407844219       -5.7484961191      -43.9476647715  TIP3      6675            0.0000000000
     44924      6875  TIP3      H1             32.4225868399       -6.4263633461      -44.6393618293  TIP3      6675            0.0000000000
     44925      6875  TIP3      H2             32.9030239190       -6.2680509595      -43.2064818970  TIP3      6675            0.0000000000
     44926      6876  TIP3      OH2            34.1232144458       -7.1907193022      -35.3759028002  TIP3      6676            0.0000000000
     44927      6876  TIP3      H1             34.0567651703       -7.8306270299      -36.1290471562  TIP3      6676            0.0000000000
     44928      6876  TIP3      H2             34.2841990281       -6.3678051090      -35.8693594084  TIP3      6676            0.0000000000
     44929      6877  TIP3      OH2            28.8325292321      -10.1020765750      -45.7770905103  TIP3      6677            0.0000000000
     44930      6877  TIP3      H1             28.3811922796       -9.2309193911      -45.8440322254  TIP3      6677            0.0000000000
     44931      6877  TIP3      H2             29.6102352038       -9.9790818962      -46.3529993680  TIP3      6677            0.0000000000
     44932      6878  TIP3      OH2            29.2872398622      -11.4607126004      -48.7285600971  TIP3      6678            0.0000000000
     44933      6878  TIP3      H1             30.0328025754      -11.2224244945      -48.1230964150  TIP3      6678            0.0000000000
     44934      6878  TIP3      H2             29.5482360568      -12.3657933081      -48.9785928991  TIP3      6678            0.0000000000
     44935      6879  TIP3      OH2            35.7585678286      -10.8605746668      -37.4426678236  TIP3      6679            0.0000000000
     44936      6879  TIP3      H1             35.1725514349      -10.0880827810      -37.6138318429  TIP3      6679            0.0000000000
     44937      6879  TIP3      H2             36.4646716921      -10.6984542862      -38.0987056630  TIP3      6679            0.0000000000
     44938      6880  TIP3      OH2            32.4507036831      -10.0832662945      -44.6611952722  TIP3      6680            0.0000000000
     44939      6880  TIP3      H1             31.7197043504       -9.7480674159      -44.0849097346  TIP3      6680            0.0000000000
     44940      6880  TIP3      H2             33.0430565154      -10.4565712353      -43.9679472725  TIP3      6680            0.0000000000
     44941      6881  TIP3      OH2            32.1972314756      -11.8205224282      -35.5838366599  TIP3      6681            0.0000000000
     44942      6881  TIP3      H1             32.0205053341      -10.9253722586      -35.2495251292  TIP3      6681            0.0000000000
     44943      6881  TIP3      H2             31.5401789756      -11.8113985445      -36.3088530558  TIP3      6681            0.0000000000
     44944      6882  TIP3      OH2            23.8631576598       -9.5267008891      -42.8033370829  TIP3      6682            0.0000000000
     44945      6882  TIP3      H1             23.5536032736       -9.7951970106      -43.7013015271  TIP3      6682            0.0000000000
     44946      6882  TIP3      H2             24.5003666065      -10.2457598885      -42.6054558835  TIP3      6682            0.0000000000
     44947      6883  TIP3      OH2            25.1890859641       -6.1462948502      -40.2553066058  TIP3      6683            0.0000000000
     44948      6883  TIP3      H1             25.3008088992       -6.2975359646      -41.2059169504  TIP3      6683            0.0000000000
     44949      6883  TIP3      H2             25.9843771656       -6.5484941831      -39.8630131678  TIP3      6683            0.0000000000
     44950      6884  TIP3      OH2            24.1375504002      -10.9206894005      -39.1376643937  TIP3      6684            0.0000000000
     44951      6884  TIP3      H1             24.4762223723      -10.8941765604      -40.0621851019  TIP3      6684            0.0000000000
     44952      6884  TIP3      H2             24.5750728496      -10.1350885838      -38.7327661542  TIP3      6684            0.0000000000
     44953      6885  TIP3      OH2            30.6557026630       -4.9737285234      -38.4245530082  TIP3      6685            0.0000000000
     44954      6885  TIP3      H1             30.4896469730       -4.4412735453      -37.6274502897  TIP3      6685            0.0000000000
     44955      6885  TIP3      H2             30.4367047187       -5.8775589959      -38.1092402260  TIP3      6685            0.0000000000
     44956      6886  TIP3      OH2            25.3176314743       -6.2399458775      -34.7247982285  TIP3      6686            0.0000000000
     44957      6886  TIP3      H1             24.6482801646       -5.6833440682      -34.2472909582  TIP3      6686            0.0000000000
     44958      6886  TIP3      H2             24.8507866332       -6.3465258810      -35.5804094060  TIP3      6686            0.0000000000
     44959      6887  TIP3      OH2            31.1919306488      -10.7309180159      -47.0327850745  TIP3      6687            0.0000000000
     44960      6887  TIP3      H1             31.6319539364      -10.6443444474      -46.1517355440  TIP3      6687            0.0000000000
     44961      6887  TIP3      H2             31.7404348315      -10.0935962572      -47.5701020701  TIP3      6687            0.0000000000
     44962      6888  TIP3      OH2            22.2193175448      -10.3346803882      -35.3875114103  TIP3      6688            0.0000000000
     44963      6888  TIP3      H1             22.4524689529       -9.4672983252      -35.0405971717  TIP3      6688            0.0000000000
     44964      6888  TIP3      H2             21.3574219500      -10.4600751860      -34.9557768791  TIP3      6688            0.0000000000
     44965      6889  TIP3      OH2            28.8949138931       -4.1640612938      -44.2355050104  TIP3      6689            0.0000000000
     44966      6889  TIP3      H1             29.3299023990       -3.9519571769      -43.3974198142  TIP3      6689            0.0000000000
     44967      6889  TIP3      H2             28.3523722027       -3.3829962674      -44.4069011693  TIP3      6689            0.0000000000
     44968      6890  TIP3      OH2            23.6480792620       -4.4995974954      -33.6406742676  TIP3      6690            0.0000000000
     44969      6890  TIP3      H1             23.3034239465       -3.7239907779      -34.1402064337  TIP3      6690            0.0000000000
     44970      6890  TIP3      H2             22.7790207736       -4.8744301919      -33.3791409499  TIP3      6690            0.0000000000
     44971      6891  TIP3      OH2            34.9136535394      -19.4979787114      -47.2915824633  TIP3      6691            0.0000000000
     44972      6891  TIP3      H1             33.9692754950      -19.3295660024      -47.0608830869  TIP3      6691            0.0000000000
     44973      6891  TIP3      H2             35.2937636658      -18.6219943060      -47.1327069188  TIP3      6691            0.0000000000
     44974      6892  TIP3      OH2            22.8805729545      -10.5879876963      -45.2159389722  TIP3      6692            0.0000000000
     44975      6892  TIP3      H1             22.3940614086       -9.8714819501      -45.6774570579  TIP3      6692            0.0000000000
     44976      6892  TIP3      H2             22.4449142478      -11.3815233924      -45.5515192952  TIP3      6692            0.0000000000
     44977      6893  TIP3      OH2            36.3496523338       -4.6521886741      -48.4589091826  TIP3      6693            0.0000000000
     44978      6893  TIP3      H1             36.4429441173       -3.6724507301      -48.4237458356  TIP3      6693            0.0000000000
     44979      6893  TIP3      H2             37.2618122156       -4.9522252894      -48.3423680287  TIP3      6693            0.0000000000
     44980      6894  TIP3      OH2            19.1397436990       -7.8619588884      -36.2991870479  TIP3      6694            0.0000000000
     44981      6894  TIP3      H1             18.5745234574       -7.9420169411      -37.0819827712  TIP3      6694            0.0000000000
     44982      6894  TIP3      H2             19.5639370624       -8.7437097358      -36.2748019758  TIP3      6694            0.0000000000
     44983      6895  TIP3      OH2            18.9266508518       -5.3279969797      -39.6941585640  TIP3      6695            0.0000000000
     44984      6895  TIP3      H1             19.8794722311       -5.4708301659      -39.7712184736  TIP3      6695            0.0000000000
     44985      6895  TIP3      H2             18.9120907254       -4.5589721603      -39.1064461050  TIP3      6695            0.0000000000
     44986      6896  TIP3      OH2            36.8868211661       -4.4449929734      -33.8587817052  TIP3      6696            0.0000000000
     44987      6896  TIP3      H1             36.8065713624       -5.3765817236      -34.0887816473  TIP3      6696            0.0000000000
     44988      6896  TIP3      H2             36.1029919499       -4.3521299840      -33.2640342671  TIP3      6696            0.0000000000
     44989      6897  TIP3      OH2            27.8752419169       -5.1554052469      -34.9910425522  TIP3      6697            0.0000000000
     44990      6897  TIP3      H1             28.0342382246       -4.4725064159      -34.3242997682  TIP3      6697            0.0000000000
     44991      6897  TIP3      H2             26.9320384537       -5.4056398821      -34.8494380952  TIP3      6697            0.0000000000
     44992      6898  TIP3      OH2            28.3446809731       -1.3918034915      -45.4523078448  TIP3      6698            0.0000000000
     44993      6898  TIP3      H1             28.4769126352       -1.2000744864      -46.3944260259  TIP3      6698            0.0000000000
     44994      6898  TIP3      H2             28.4110022248       -0.4892668042      -45.0745629806  TIP3      6698            0.0000000000
     44995      6899  TIP3      OH2            22.0817003231       -2.7331719528      -43.1728639402  TIP3      6699            0.0000000000
     44996      6899  TIP3      H1             22.3535468355       -2.8892105527      -42.2332442688  TIP3      6699            0.0000000000
     44997      6899  TIP3      H2             21.1926489017       -3.1462258856      -43.1843283288  TIP3      6699            0.0000000000
     44998      6900  TIP3      OH2            31.2116413109       -1.5664168428      -48.1075770943  TIP3      6700            0.0000000000
     44999      6900  TIP3      H1             31.6249353097       -2.4036332335      -48.4375051038  TIP3      6700            0.0000000000
     45000      6900  TIP3      H2             31.3863645002       -1.5898096791      -47.1521108356  TIP3      6700            0.0000000000
     45001      6901  TIP3      OH2            31.0149639004       -2.1319167965      -45.3246808645  TIP3      6701            0.0000000000
     45002      6901  TIP3      H1             30.0606462814       -2.1179021689      -45.1205708362  TIP3      6701            0.0000000000
     45003      6901  TIP3      H2             31.3304938190       -2.8748296839      -44.7827860227  TIP3      6701            0.0000000000
     45004      6902  TIP3      OH2            33.7154987299      -12.8400904031      -33.4119684781  TIP3      6702            0.0000000000
     45005      6902  TIP3      H1             33.2180258707      -12.4981511994      -34.1892184128  TIP3      6702            0.0000000000
     45006      6902  TIP3      H2             33.8487821157      -13.7667410976      -33.6808734159  TIP3      6702            0.0000000000
     45007      6903  TIP3      OH2            21.3610054010       -6.6424123788      -35.6573212100  TIP3      6703            0.0000000000
     45008      6903  TIP3      H1             21.3458840406       -6.7828410814      -34.6904723031  TIP3      6703            0.0000000000
     45009      6903  TIP3      H2             20.4538109849       -6.9264379517      -35.9047266938  TIP3      6703            0.0000000000
     45010      6904  TIP3      OH2            24.0903661826      -18.0045753050      -39.5664561473  TIP3      6704            0.0000000000
     45011      6904  TIP3      H1             23.2126939443      -18.0411856488      -39.9818032528  TIP3      6704            0.0000000000
     45012      6904  TIP3      H2             23.8822109885      -17.4765228805      -38.7698013572  TIP3      6704            0.0000000000
     45013      6905  TIP3      OH2            28.7964272915      -18.5926509826      -36.0959225277  TIP3      6705            0.0000000000
     45014      6905  TIP3      H1             29.1682809558      -19.0038642819      -35.2854176252  TIP3      6705            0.0000000000
     45015      6905  TIP3      H2             27.8230300309      -18.6487393768      -35.9578151075  TIP3      6705            0.0000000000
     45016      6906  TIP3      OH2            31.6965889706      -14.7570006638      -35.3601399926  TIP3      6706            0.0000000000
     45017      6906  TIP3      H1             31.1428075012      -15.0929884835      -34.6217505255  TIP3      6706            0.0000000000
     45018      6906  TIP3      H2             31.5739122912      -13.7916393347      -35.2747566339  TIP3      6706            0.0000000000
     45019      6907  TIP3      OH2            32.6344207271       -9.3938168062      -48.7109422838  TIP3      6707            0.0000000000
     45020      6907  TIP3      H1             32.2191264559       -9.2615925582      -49.5914159382  TIP3      6707            0.0000000000
     45021      6907  TIP3      H2             33.5696962893       -9.3786806324      -48.9738957989  TIP3      6707            0.0000000000
     45022      6908  TIP3      OH2            28.3853831345      -15.7574642445      -48.7061124569  TIP3      6708            0.0000000000
     45023      6908  TIP3      H1             27.9084522055      -16.1316583031      -47.9335893453  TIP3      6708            0.0000000000
     45024      6908  TIP3      H2             27.8075847996      -16.0558363785      -49.4244916249  TIP3      6708            0.0000000000
     45025      6909  TIP3      OH2            24.1904815873      -13.3552485246      -38.1546436374  TIP3      6709            0.0000000000
     45026      6909  TIP3      H1             23.4177933053      -13.2808412517      -37.5528143211  TIP3      6709            0.0000000000
     45027      6909  TIP3      H2             24.2035458157      -12.4342491510      -38.5038490999  TIP3      6709            0.0000000000
     45028      6910  TIP3      OH2            23.9345761108      -13.3056518120      -43.2911344852  TIP3      6710            0.0000000000
     45029      6910  TIP3      H1             22.9809972365      -13.3359904585      -43.5099030738  TIP3      6710            0.0000000000
     45030      6910  TIP3      H2             24.3446406403      -13.4684954213      -44.1788177621  TIP3      6710            0.0000000000
     45031      6911  TIP3      OH2            29.7919888792      -12.2376900715      -44.3265151045  TIP3      6711            0.0000000000
     45032      6911  TIP3      H1             29.4013471894      -11.4795132644      -44.8203022780  TIP3      6711            0.0000000000
     45033      6911  TIP3      H2             30.3345762168      -12.6402730420      -45.0281171924  TIP3      6711            0.0000000000
     45034      6912  TIP3      OH2            28.3489039315      -12.2888602874      -33.2454797773  TIP3      6712            0.0000000000
     45035      6912  TIP3      H1             27.9308481360      -13.1286844424      -32.9456379759  TIP3      6712            0.0000000000
     45036      6912  TIP3      H2             29.0163870959      -12.1664959242      -32.5556514135  TIP3      6712            0.0000000000
     45037      6913  TIP3      OH2            30.5685527855      -12.7785094708      -41.4965822879  TIP3      6713            0.0000000000
     45038      6913  TIP3      H1             30.4242004923      -11.9710122395      -42.0321960909  TIP3      6713            0.0000000000
     45039      6913  TIP3      H2             30.5646369333      -13.4195315661      -42.2200723658  TIP3      6713            0.0000000000
     45040      6914  TIP3      OH2            21.7962544068      -13.1274330896      -36.9398506366  TIP3      6714            0.0000000000
     45041      6914  TIP3      H1             22.0004503074      -12.6182885196      -36.1389427527  TIP3      6714            0.0000000000
     45042      6914  TIP3      H2             21.5353634490      -13.9941994090      -36.5710314967  TIP3      6714            0.0000000000
     45043      6915  TIP3      OH2            24.9887271517      -15.4292228162      -49.4730413185  TIP3      6715            0.0000000000
     45044      6915  TIP3      H1             24.6087843864      -15.9385816357      -48.7349251715  TIP3      6715            0.0000000000
     45045      6915  TIP3      H2             24.2897115017      -15.4231321347      -50.1367653948  TIP3      6715            0.0000000000
     45046      6916  TIP3      OH2            18.5068874177      -15.9299798751      -42.3431091600  TIP3      6716            0.0000000000
     45047      6916  TIP3      H1             19.1849535219      -15.9313035278      -41.6523220218  TIP3      6716            0.0000000000
     45048      6916  TIP3      H2             19.0140896726      -15.9503871998      -43.1622014246  TIP3      6716            0.0000000000
     45049      6917  TIP3      OH2            19.6186323191      -15.2362525690      -47.1515850899  TIP3      6717            0.0000000000
     45050      6917  TIP3      H1             20.4322440573      -14.8073550652      -47.4687370385  TIP3      6717            0.0000000000
     45051      6917  TIP3      H2             19.0290437350      -14.4484062427      -47.1222822465  TIP3      6717            0.0000000000
     45052      6918  TIP3      OH2            29.7839031967      -11.4003044355      -37.1944086415  TIP3      6718            0.0000000000
     45053      6918  TIP3      H1             30.2903351499      -12.0682085196      -37.7246319003  TIP3      6718            0.0000000000
     45054      6918  TIP3      H2             29.1762319127      -11.9772327916      -36.6889883272  TIP3      6718            0.0000000000
     45055      6919  TIP3      OH2            26.6848957853      -15.4752154348      -42.2590914279  TIP3      6719            0.0000000000
     45056      6919  TIP3      H1             25.7462432726      -15.5856909795      -42.0122281489  TIP3      6719            0.0000000000
     45057      6919  TIP3      H2             27.1671027047      -16.0895417909      -41.6697195876  TIP3      6719            0.0000000000
     45058      6920  TIP3      OH2            21.2216022640      -14.0494781007      -43.3430366605  TIP3      6720            0.0000000000
     45059      6920  TIP3      H1             20.4593909099      -13.7813637919      -43.9057507647  TIP3      6720            0.0000000000
     45060      6920  TIP3      H2             21.5053854626      -14.9079007917      -43.7050541270  TIP3      6720            0.0000000000
     45061      6921  TIP3      OH2            24.9152068901      -13.8937526183      -45.7148139649  TIP3      6721            0.0000000000
     45062      6921  TIP3      H1             25.8652588540      -13.7078323902      -45.7420134591  TIP3      6721            0.0000000000
     45063      6921  TIP3      H2             24.5516668794      -13.2161084016      -46.3239727421  TIP3      6721            0.0000000000
     45064      6922  TIP3      OH2            30.9664143727      -16.2998403526      -39.0766056207  TIP3      6722            0.0000000000
     45065      6922  TIP3      H1             30.2752018949      -16.4253405520      -38.3946709700  TIP3      6722            0.0000000000
     45066      6922  TIP3      H2             30.5404722161      -16.6159947717      -39.8851523505  TIP3      6722            0.0000000000
     45067      6923  TIP3      OH2            23.6707134797      -12.6072954903      -47.9488241249  TIP3      6723            0.0000000000
     45068      6923  TIP3      H1             22.8074061071      -12.8490402987      -48.3268235976  TIP3      6723            0.0000000000
     45069      6923  TIP3      H2             24.2865054613      -13.1027879748      -48.5156070181  TIP3      6723            0.0000000000
     45070      6924  TIP3      OH2            34.1652859188       -0.8291218667      -32.5426439835  TIP3      6724            0.0000000000
     45071      6924  TIP3      H1             34.6078202758       -0.5350061501      -33.3640716560  TIP3      6724            0.0000000000
     45072      6924  TIP3      H2             34.8990447509       -0.7943557725      -31.9089958460  TIP3      6724            0.0000000000
     45073      6925  TIP3      OH2            21.5865393588       -7.9465220954      -33.0277756950  TIP3      6725            0.0000000000
     45074      6925  TIP3      H1             22.2296991173       -7.5750655288      -32.3981419864  TIP3      6725            0.0000000000
     45075      6925  TIP3      H2             20.8162670479       -8.1360884337      -32.4542392126  TIP3      6725            0.0000000000
     45076      6926  TIP3      OH2            27.7324281115      -12.8124287471      -40.5371456989  TIP3      6726            0.0000000000
     45077      6926  TIP3      H1             28.5032110393      -13.0624454475      -41.0692532713  TIP3      6726            0.0000000000
     45078      6926  TIP3      H2             27.5343018993      -13.6448177908      -40.0765143597  TIP3      6726            0.0000000000
     45079      6927  TIP3      OH2            22.2875245686      -16.7657820300      -44.0371380272  TIP3      6727            0.0000000000
     45080      6927  TIP3      H1             21.6640337037      -17.4002672547      -43.6152071095  TIP3      6727            0.0000000000
     45081      6927  TIP3      H2             22.7435466825      -17.3813368505      -44.6214411040  TIP3      6727            0.0000000000
     45082      6928  TIP3      OH2            26.5661393592      -14.5504358350      -38.0821711202  TIP3      6728            0.0000000000
     45083      6928  TIP3      H1             25.7443558106      -14.0067761527      -38.0464816979  TIP3      6728            0.0000000000
     45084      6928  TIP3      H2             27.1903311755      -14.0290194727      -37.5577957719  TIP3      6728            0.0000000000
     45085      6929  TIP3      OH2            27.0375190793       -7.9337009727      -46.0808667707  TIP3      6729            0.0000000000
     45086      6929  TIP3      H1             26.3238664683       -8.5010562018      -46.4391871707  TIP3      6729            0.0000000000
     45087      6929  TIP3      H2             26.6734569618       -7.7984316609      -45.1708333489  TIP3      6729            0.0000000000
     45088      6930  TIP3      OH2            34.2545070048       -8.5641273485      -37.6873293295  TIP3      6730            0.0000000000
     45089      6930  TIP3      H1             34.8426733591       -8.1989168997      -38.3771669896  TIP3      6730            0.0000000000
     45090      6930  TIP3      H2             33.4514469741       -8.7807664997      -38.2102358028  TIP3      6730            0.0000000000
     45091      6931  TIP3      OH2            30.9307950915      -15.2195499535      -48.2399129243  TIP3      6731            0.0000000000
     45092      6931  TIP3      H1             29.9626752911      -15.3156356299      -48.1269753151  TIP3      6731            0.0000000000
     45093      6931  TIP3      H2             31.1116888253      -14.4730694866      -47.6324576587  TIP3      6731            0.0000000000
     45094      6932  TIP3      OH2            28.5005779454       -7.8156421431      -34.8688551113  TIP3      6732            0.0000000000
     45095      6932  TIP3      H1             27.8898917628       -8.0590023853      -34.1540447662  TIP3      6732            0.0000000000
     45096      6932  TIP3      H2             28.3644424854       -6.8483509674      -34.8946665978  TIP3      6732            0.0000000000
     45097      6933  TIP3      OH2            31.5886598948      -13.3231517365      -46.4950925861  TIP3      6733            0.0000000000
     45098      6933  TIP3      H1             32.4821200708      -13.4565419433      -46.1197216501  TIP3      6733            0.0000000000
     45099      6933  TIP3      H2             31.6336025814      -12.4126646218      -46.8448387106  TIP3      6733            0.0000000000
     45100      6934  TIP3      OH2            22.2695111095       -8.5917977026      -40.7007738351  TIP3      6734            0.0000000000
     45101      6934  TIP3      H1             22.8174818460       -8.7973749696      -41.4879560876  TIP3      6734            0.0000000000
     45102      6934  TIP3      H2             22.3873655143       -9.3867919747      -40.1613998263  TIP3      6734            0.0000000000
     45103      6935  TIP3      OH2            29.1569587225       -6.5464858593      -46.8629512861  TIP3      6735            0.0000000000
     45104      6935  TIP3      H1             28.7168930269       -5.6688885525      -46.8613468692  TIP3      6735            0.0000000000
     45105      6935  TIP3      H2             28.3763179843       -7.1370754335      -46.7710052850  TIP3      6735            0.0000000000
     45106      6936  TIP3      OH2            19.1826349528      -10.4435210205      -35.2196174911  TIP3      6736            0.0000000000
     45107      6936  TIP3      H1             19.0082242485      -11.0031928252      -34.4340574850  TIP3      6736            0.0000000000
     45108      6936  TIP3      H2             18.6288175150      -10.8801369863      -35.8905264956  TIP3      6736            0.0000000000
     45109      6937  TIP3      OH2            26.1064525043      -10.7879551497      -33.3957339753  TIP3      6737            0.0000000000
     45110      6937  TIP3      H1             25.6714879018      -11.2751359488      -34.1120360414  TIP3      6737            0.0000000000
     45111      6937  TIP3      H2             26.9988981228      -11.2127899259      -33.3868484843  TIP3      6737            0.0000000000
     45112      6938  TIP3      OH2            31.1527906332       -5.4313084245      -34.9433369381  TIP3      6738            0.0000000000
     45113      6938  TIP3      H1             30.3297227459       -5.5761530796      -35.4180800703  TIP3      6738            0.0000000000
     45114      6938  TIP3      H2             30.8108862942       -5.1376046609      -34.0786418726  TIP3      6738            0.0000000000
     45115      6939  TIP3      OH2            36.5086997522      -13.4512108004      -46.5946237752  TIP3      6739            0.0000000000
     45116      6939  TIP3      H1             35.8438839865      -13.7515010476      -47.2494352305  TIP3      6739            0.0000000000
     45117      6939  TIP3      H2             36.5596781914      -12.5177759449      -46.8704941709  TIP3      6739            0.0000000000
     45118      6940  TIP3      OH2            36.4422808449       -7.5536572926      -34.0750082679  TIP3      6740            0.0000000000
     45119      6940  TIP3      H1             35.5542589632       -7.2855768052      -34.4010053612  TIP3      6740            0.0000000000
     45120      6940  TIP3      H2             36.9686980622       -7.6095365045      -34.9072999184  TIP3      6740            0.0000000000
     45121      6941  TIP3      OH2            34.9483254244       -4.8352933570      -46.1716852601  TIP3      6741            0.0000000000
     45122      6941  TIP3      H1             34.0686551392       -5.2130306164      -46.2788959551  TIP3      6741            0.0000000000
     45123      6941  TIP3      H2             35.3873363546       -4.9923819191      -47.0323301524  TIP3      6741            0.0000000000
     45124      6942  TIP3      OH2            32.1461561358       -9.4409995967      -39.3601440899  TIP3      6742            0.0000000000
     45125      6942  TIP3      H1             31.2228582328       -9.4780746015      -39.6383831830  TIP3      6742            0.0000000000
     45126      6942  TIP3      H2             32.4834810511      -10.2160940102      -39.8697201576  TIP3      6742            0.0000000000
     45127      6943  TIP3      OH2            24.4383404637       -5.3407645900      -42.8516541959  TIP3      6743            0.0000000000
     45128      6943  TIP3      H1             24.6829566637       -4.4024345423      -42.9759313233  TIP3      6743            0.0000000000
     45129      6943  TIP3      H2             23.5617277193       -5.3543253237      -43.2571769401  TIP3      6743            0.0000000000
     45130      6944  TIP3      OH2            20.5128724360      -10.7343243515      -48.9065120130  TIP3      6744            0.0000000000
     45131      6944  TIP3      H1             21.0859635312      -10.1563273481      -48.3772376250  TIP3      6744            0.0000000000
     45132      6944  TIP3      H2             19.6464344071      -10.6690379823      -48.4366860439  TIP3      6744            0.0000000000
     45133      6945  TIP3      OH2            25.9447874629       -7.6390703877      -43.5006809509  TIP3      6745            0.0000000000
     45134      6945  TIP3      H1             25.3825209705       -6.8398524943      -43.4252542455  TIP3      6745            0.0000000000
     45135      6945  TIP3      H2             25.4515063352       -8.3048481016      -42.9879382568  TIP3      6745            0.0000000000
     45136      6946  TIP3      OH2            26.4577883780       -3.5125245648      -36.7648264845  TIP3      6746            0.0000000000
     45137      6946  TIP3      H1             27.0108973599       -2.8298018020      -37.1658661063  TIP3      6746            0.0000000000
     45138      6946  TIP3      H2             27.0660645196       -3.9230304407      -36.1214764901  TIP3      6746            0.0000000000
     45139      6947  TIP3      OH2            24.6793725890       -2.8130674820      -44.1188940983  TIP3      6747            0.0000000000
     45140      6947  TIP3      H1             23.7362155074       -2.7058455482      -43.8690067451  TIP3      6747            0.0000000000
     45141      6947  TIP3      H2             25.0047553012       -1.9095353338      -43.9425370150  TIP3      6747            0.0000000000
     45142      6948  TIP3      OH2            29.6331036902       -7.5759060258      -37.4836261758  TIP3      6748            0.0000000000
     45143      6948  TIP3      H1             29.1697315710       -7.8122129569      -36.6447443111  TIP3      6748            0.0000000000
     45144      6948  TIP3      H2             30.0851392439       -8.4132762969      -37.6928451535  TIP3      6748            0.0000000000
     45145      6949  TIP3      OH2            32.2886708337       -6.3023210987      -48.4842238627  TIP3      6749            0.0000000000
     45146      6949  TIP3      H1             32.6677846762       -6.8064209119      -47.7318091827  TIP3      6749            0.0000000000
     45147      6949  TIP3      H2             31.3825497393       -6.6307355007      -48.4442484542  TIP3      6749            0.0000000000
     45148      6950  TIP3      OH2            32.6786817258       -2.9729381141      -35.0484300661  TIP3      6750            0.0000000000
     45149      6950  TIP3      H1             31.8961095683       -3.5637689524      -35.1024575575  TIP3      6750            0.0000000000
     45150      6950  TIP3      H2             32.6564523799       -2.4759539968      -35.8974568046  TIP3      6750            0.0000000000
     45151      6951  TIP3      OH2            36.9643233943       -1.9720010452      -48.4918356575  TIP3      6751            0.0000000000
     45152      6951  TIP3      H1             37.6334458649       -1.2664090602      -48.4819349566  TIP3      6751            0.0000000000
     45153      6951  TIP3      H2             36.1838387112       -1.4949012311      -48.1295545283  TIP3      6751            0.0000000000
     45154      6952  TIP3      OH2            21.0728827039      -15.5787651070      -35.9035316754  TIP3      6752            0.0000000000
     45155      6952  TIP3      H1             20.2588749631      -15.0497962403      -35.8252156820  TIP3      6752            0.0000000000
     45156      6952  TIP3      H2             20.7991864612      -16.4082941459      -35.4798857525  TIP3      6752            0.0000000000
     45157      6953  TIP3      OH2            33.1718776627       -7.6960031639      -46.3424682096  TIP3      6753            0.0000000000
     45158      6953  TIP3      H1             32.8557747844       -8.5700043784      -46.0710287668  TIP3      6753            0.0000000000
     45159      6953  TIP3      H2             34.1399773586       -7.8146532016      -46.2915237936  TIP3      6753            0.0000000000
     45160      6954  TIP3      OH2            20.4913337408       -3.8011364359      -37.3081727225  TIP3      6754            0.0000000000
     45161      6954  TIP3      H1             21.1871874607       -4.4675717132      -37.2968596408  TIP3      6754            0.0000000000
     45162      6954  TIP3      H2             20.6845211957       -3.3704929044      -36.4453295372  TIP3      6754            0.0000000000
     45163      6955  TIP3      OH2            24.9250525489       -5.9121563684      -47.4408987489  TIP3      6755            0.0000000000
     45164      6955  TIP3      H1             25.7614221525       -6.2659321362      -47.1025141849  TIP3      6755            0.0000000000
     45165      6955  TIP3      H2             24.9955851178       -4.9616310076      -47.1484256792  TIP3      6755            0.0000000000
     45166      6956  TIP3      OH2            21.6410509256       -8.7073657378      -46.9642354656  TIP3      6756            0.0000000000
     45167      6956  TIP3      H1             20.7443469350       -8.3578507422      -46.7430742506  TIP3      6756            0.0000000000
     45168      6956  TIP3      H2             22.0624474541       -7.8841822264      -47.2821195123  TIP3      6756            0.0000000000
     45169      6957  TIP3      OH2            29.5246832578      -15.9149274536      -36.4531740246  TIP3      6757            0.0000000000
     45170      6957  TIP3      H1             30.4608697015      -15.7897822933      -36.1950296497  TIP3      6757            0.0000000000
     45171      6957  TIP3      H2             29.3497888581      -16.8376203373      -36.1919259134  TIP3      6757            0.0000000000
     45172      6958  TIP3      OH2            30.2955487900      -16.4829676419      -45.3594701969  TIP3      6758            0.0000000000
     45173      6958  TIP3      H1             30.5361465843      -15.8791430017      -46.0682707113  TIP3      6758            0.0000000000
     45174      6958  TIP3      H2             30.9160271630      -16.2144000089      -44.6383853780  TIP3      6758            0.0000000000
     45175      6959  TIP3      OH2            27.9180932406       -4.1371650846      -47.3783382469  TIP3      6759            0.0000000000
     45176      6959  TIP3      H1             27.2090122888       -4.0597099946      -46.7216728700  TIP3      6759            0.0000000000
     45177      6959  TIP3      H2             28.2941701500       -3.2406120671      -47.3649380810  TIP3      6759            0.0000000000
     45178      6960  TIP3      OH2            27.9551459145      -14.4830701600      -44.4934726997  TIP3      6760            0.0000000000
     45179      6960  TIP3      H1             28.3298235058      -13.5983516221      -44.3348045920  TIP3      6760            0.0000000000
     45180      6960  TIP3      H2             27.5393196646      -14.7367857457      -43.6409141923  TIP3      6760            0.0000000000
     45181      6961  TIP3      OH2            28.4212636110      -13.3859338658      -35.7477433577  TIP3      6761            0.0000000000
     45182      6961  TIP3      H1             28.4595303989      -13.0332843237      -34.8305518967  TIP3      6761            0.0000000000
     45183      6961  TIP3      H2             28.8308339303      -14.2738590611      -35.6848634058  TIP3      6761            0.0000000000
     45184      6962  TIP3      OH2            28.2046952159      -17.7192135942      -44.1676174872  TIP3      6762            0.0000000000
     45185      6962  TIP3      H1             27.8586315599      -17.0513762300      -43.5594384367  TIP3      6762            0.0000000000
     45186      6962  TIP3      H2             29.0570837187      -17.2816045126      -44.4452350209  TIP3      6762            0.0000000000
     45187      6963  TIP3      OH2            25.3074798799       -3.4045358386      -46.6588313977  TIP3      6763            0.0000000000
     45188      6963  TIP3      H1             25.5568840375       -2.5841638365      -47.1457464372  TIP3      6763            0.0000000000
     45189      6963  TIP3      H2             25.0332507356       -3.0397194835      -45.7891869337  TIP3      6763            0.0000000000
     45190      6964  TIP3      OH2            24.0251513869      -16.4285342685      -46.9819922944  TIP3      6764            0.0000000000
     45191      6964  TIP3      H1             23.9637271528      -15.6409472308      -46.4153516234  TIP3      6764            0.0000000000
     45192      6964  TIP3      H2             24.9201967750      -16.7208656839      -46.7549433525  TIP3      6764            0.0000000000
     45193      6965  TIP3      OH2            33.9532592144      -15.6426090441      -34.3497506834  TIP3      6765            0.0000000000
     45194      6965  TIP3      H1             33.1318179504      -15.4796260980      -34.8696871349  TIP3      6765            0.0000000000
     45195      6965  TIP3      H2             34.6444740699      -15.4983330612      -35.0298443993  TIP3      6765            0.0000000000
     45196      6966  TIP3      OH2            32.8891691495      -11.5669927248      -40.8351382973  TIP3      6766            0.0000000000
     45197      6966  TIP3      H1             32.0763695142      -12.1002062037      -40.9152903498  TIP3      6766            0.0000000000
     45198      6966  TIP3      H2             33.4068091855      -12.1998781326      -40.2755818859  TIP3      6766            0.0000000000
     45199      6967  TIP3      OH2            22.3811825281       -6.3466375519      -48.0378197766  TIP3      6767            0.0000000000
     45200      6967  TIP3      H1             23.2362822036       -6.1492010400      -47.5791149925  TIP3      6767            0.0000000000
     45201      6967  TIP3      H2             22.7460744444       -6.5988354816      -48.8964733029  TIP3      6767            0.0000000000
     45202      6968  TIP3      OH2            20.8450305219      -13.3639589471      -48.6741844437  TIP3      6768            0.0000000000
     45203      6968  TIP3      H1             20.7748877611      -12.3940712094      -48.6393406775  TIP3      6768            0.0000000000
     45204      6968  TIP3      H2             20.1338731391      -13.5981871720      -49.2999500021  TIP3      6768            0.0000000000
     45205      6969  TIP3      OH2            34.3055572359       -2.6058383233      -39.1700530955  TIP3      6769            0.0000000000
     45206      6969  TIP3      H1             34.1307665081       -1.8818216858      -39.8121855779  TIP3      6769            0.0000000000
     45207      6969  TIP3      H2             35.2718794032       -2.5631964579      -39.0572404451  TIP3      6769            0.0000000000
     45208      6970  TIP3      OH2            21.4499067966      -18.5578395891      -40.1509978028  TIP3      6770            0.0000000000
     45209      6970  TIP3      H1             21.4567956791      -18.6697114875      -41.1261058331  TIP3      6770            0.0000000000
     45210      6970  TIP3      H2             21.1653890842      -19.4533641313      -39.8838964854  TIP3      6770            0.0000000000
     45211      6971  TIP3      OH2            20.0350255646       -4.7204743021      -44.0891363537  TIP3      6771            0.0000000000
     45212      6971  TIP3      H1             19.2782719707       -4.1151550268      -44.0867578357  TIP3      6771            0.0000000000
     45213      6971  TIP3      H2             20.4463075707       -4.4239766950      -44.9143389480  TIP3      6771            0.0000000000
     45214      6972  TIP3      OH2            19.2936983133       -1.8233966430      -32.9515609505  TIP3      6772            0.0000000000
     45215      6972  TIP3      H1             20.2318982625       -1.8625600229      -33.2482015567  TIP3      6772            0.0000000000
     45216      6972  TIP3      H2             19.0498529320       -2.7584972056      -33.0978645285  TIP3      6772            0.0000000000
     45217      6973  TIP3      OH2            24.2879404380       -3.0531534407      -31.3552125853  TIP3      6773            0.0000000000
     45218      6973  TIP3      H1             25.1150682357       -3.5463385966      -31.2827752835  TIP3      6773            0.0000000000
     45219      6973  TIP3      H2             23.9377409891       -3.4645046365      -32.1755414942  TIP3      6773            0.0000000000
     45220      6974  TIP3      OH2            28.4290378417       -3.8309122934      -50.2406423015  TIP3      6774            0.0000000000
     45221      6974  TIP3      H1             27.8793914350       -4.3903946862      -49.6830143963  TIP3      6774            0.0000000000
     45222      6974  TIP3      H2             29.2988801339       -3.9968960676      -49.8344089175  TIP3      6774            0.0000000000
     45223      6975  TIP3      OH2            30.5459285172       -4.2916654912      -32.4853953149  TIP3      6775            0.0000000000
     45224      6975  TIP3      H1             30.2547455055       -5.2030352489      -32.2322840898  TIP3      6775            0.0000000000
     45225      6975  TIP3      H2             31.4450744680       -4.2898091279      -32.1033964269  TIP3      6775            0.0000000000
     45226      6976  TIP3      OH2            32.0602541718       -3.8038948586      -49.3328791235  TIP3      6776            0.0000000000
     45227      6976  TIP3      H1             32.2822174201       -4.7027446095      -49.0044119579  TIP3      6776            0.0000000000
     45228      6976  TIP3      H2             32.8874718634       -3.4635714462      -49.7483340069  TIP3      6776            0.0000000000
     45229      6977  TIP3      OH2            19.1749026148       -8.1595184204      -31.8105778619  TIP3      6777            0.0000000000
     45230      6977  TIP3      H1             18.8235252376       -9.0654904379      -31.7677149686  TIP3      6777            0.0000000000
     45231      6977  TIP3      H2             18.7487022848       -7.8387259043      -32.6405167872  TIP3      6777            0.0000000000
     45232      6978  TIP3      OH2            24.0654851746       -8.1319248293      -49.5941500139  TIP3      6778            0.0000000000
     45233      6978  TIP3      H1             23.7877462211       -8.5415056036      -48.7583315250  TIP3      6778            0.0000000000
     45234      6978  TIP3      H2             24.9958636192       -7.9631199020      -49.3784250956  TIP3      6778            0.0000000000
     45235      6979  TIP3      OH2            26.2201350912       -8.1170770353      -33.0222605050  TIP3      6779            0.0000000000
     45236      6979  TIP3      H1             25.8075787089       -7.5870313730      -33.7450108921  TIP3      6779            0.0000000000
     45237      6979  TIP3      H2             26.0996250343       -9.0575087698      -33.3012283138  TIP3      6779            0.0000000000
     45238      6980  TIP3      OH2            31.9093902052       -8.5272550505      -34.9731347079  TIP3      6780            0.0000000000
     45239      6980  TIP3      H1             32.7871616508       -8.0957626950      -34.8516435430  TIP3      6780            0.0000000000
     45240      6980  TIP3      H2             31.3452419078       -7.7515459468      -34.8145282379  TIP3      6780            0.0000000000
     45241      6981  TIP3      OH2            20.0768888718      -11.1208911559      -32.1566043894  TIP3      6781            0.0000000000
     45242      6981  TIP3      H1             20.8892768456      -11.6097179885      -31.9821834223  TIP3      6781            0.0000000000
     45243      6981  TIP3      H2             19.6466360393      -11.0555919088      -31.2925795571  TIP3      6781            0.0000000000
     45244      6982  TIP3      OH2            25.1153831258       -9.7245624729      -47.0879580187  TIP3      6782            0.0000000000
     45245      6982  TIP3      H1             24.4762249085      -10.3108041106      -46.6331705333  TIP3      6782            0.0000000000
     45246      6982  TIP3      H2             25.5294776231      -10.3333822948      -47.7292545532  TIP3      6782            0.0000000000
     45247      6983  TIP3      OH2            24.2649283679      -11.9753160179      -35.7032944961  TIP3      6783            0.0000000000
     45248      6983  TIP3      H1             23.5775640837      -11.2944274353      -35.5383142300  TIP3      6783            0.0000000000
     45249      6983  TIP3      H2             24.9662195110      -11.4533296045      -36.1406606979  TIP3      6783            0.0000000000
     45250      6984  TIP3      OH2            26.5290967337      -11.4173595705      -49.1348257533  TIP3      6784            0.0000000000
     45251      6984  TIP3      H1             26.7524182661      -11.6992559165      -50.0365951315  TIP3      6784            0.0000000000
     45252      6984  TIP3      H2             27.4305881193      -11.4602253755      -48.7137575670  TIP3      6784            0.0000000000
     45253      6985  TIP3      OH2            29.3821055717       -9.3050524251      -31.5494717542  TIP3      6785            0.0000000000
     45254      6985  TIP3      H1             30.1812125493       -9.5662336613      -32.0276682532  TIP3      6785            0.0000000000
     45255      6985  TIP3      H2             29.2131727519      -10.1270535281      -31.0299383255  TIP3      6785            0.0000000000
     45256      6986  TIP3      OH2            35.0495318433       -9.6043972453       50.0380596088  TIP3      6786            0.0000000000
     45257      6986  TIP3      H1             35.6416596587      -10.3336407631       49.8085675104  TIP3      6786            0.0000000000
     45258      6986  TIP3      H2             35.5887166019       -8.8677745193       49.6705754134  TIP3      6786            0.0000000000
     45259      6987  TIP3      OH2            24.7870858715      -14.2087160740      -34.4005210251  TIP3      6787            0.0000000000
     45260      6987  TIP3      H1             24.9637234919      -14.9067585859      -35.0601805979  TIP3      6787            0.0000000000
     45261      6987  TIP3      H2             24.6963330506      -13.4126853135      -34.9791557291  TIP3      6787            0.0000000000
     45262      6988  TIP3      OH2            25.2326887279      -16.3103537739      -36.4350277397  TIP3      6788            0.0000000000
     45263      6988  TIP3      H1             25.7528410457      -15.8006954404      -37.0961481782  TIP3      6788            0.0000000000
     45264      6988  TIP3      H2             24.3400720987      -16.3138843854      -36.8450319491  TIP3      6788            0.0000000000
     45265      6989  TIP3      OH2            26.4152740170      -10.4427119544      -36.4834610408  TIP3      6789            0.0000000000
     45266      6989  TIP3      H1             27.3102644648      -10.1369911477      -36.6983511596  TIP3      6789            0.0000000000
     45267      6989  TIP3      H2             25.8815397411       -9.7571245438      -36.9212569888  TIP3      6789            0.0000000000
     45268      6990  TIP3      OH2            31.4544287748      -13.2167586411      -31.6749970613  TIP3      6790            0.0000000000
     45269      6990  TIP3      H1             31.6871570463      -14.1043482499      -31.9691507927  TIP3      6790            0.0000000000
     45270      6990  TIP3      H2             32.2955496475      -12.7650210654      -31.8939923332  TIP3      6790            0.0000000000
     45271      6991  TIP3      OH2            32.1980263817      -10.0456764896      -32.8112489999  TIP3      6791            0.0000000000
     45272      6991  TIP3      H1             31.8066738672       -9.6580817748      -33.6272471669  TIP3      6791            0.0000000000
     45273      6991  TIP3      H2             33.1234665212      -10.1943771343      -33.0964659181  TIP3      6791            0.0000000000
     45274      6992  TIP3      OH2            23.2706521494      -13.6561008683      -32.2314875886  TIP3      6792            0.0000000000
     45275      6992  TIP3      H1             22.4317009908      -14.1257193097      -32.4125619621  TIP3      6792            0.0000000000
     45276      6992  TIP3      H2             23.8384250036      -13.9057914133      -32.9936625600  TIP3      6792            0.0000000000
     45277      6993  TIP3      OH2            26.0764721841      -18.8800918143      -36.3537074346  TIP3      6793            0.0000000000
     45278      6993  TIP3      H1             25.8301903069      -17.9332400254      -36.2839523096  TIP3      6793            0.0000000000
     45279      6993  TIP3      H2             25.2952472220      -19.2229552093      -36.8080231438  TIP3      6793            0.0000000000
     45280      6994  TIP3      OH2            27.1906435973      -14.5928691212      -32.4512135030  TIP3      6794            0.0000000000
     45281      6994  TIP3      H1             26.7183271828      -14.7354341640      -31.6079380145  TIP3      6794            0.0000000000
     45282      6994  TIP3      H2             26.4541562359      -14.6809046841      -33.0801101792  TIP3      6794            0.0000000000
     45283      6995  TIP3      OH2            29.9474376838      -15.5726068086      -33.2035136933  TIP3      6795            0.0000000000
     45284      6995  TIP3      H1             29.0129465505      -15.3681553760      -33.0144372700  TIP3      6795            0.0000000000
     45285      6995  TIP3      H2             30.2657038748      -15.8647483823      -32.3245474525  TIP3      6795            0.0000000000
     45286      6996  TIP3      OH2            31.6691986286      -16.6063374128      -31.3613360730  TIP3      6796            0.0000000000
     45287      6996  TIP3      H1             31.5055622994      -17.5762031320      -31.4072467744  TIP3      6796            0.0000000000
     45288      6996  TIP3      H2             31.4669504467      -16.3954537140      -30.4220281839  TIP3      6796            0.0000000000
     45289      6997  TIP3      OH2            21.1044076114      -15.4318362508      -32.1642273842  TIP3      6797            0.0000000000
     45290      6997  TIP3      H1             21.0390982719      -16.2466341641      -32.7145522687  TIP3      6797            0.0000000000
     45291      6997  TIP3      H2             21.0345073297      -15.8252288082      -31.2553615571  TIP3      6797            0.0000000000
     45292      6998  TIP3      OH2            25.6499361086      -19.6683996251      -33.5473907492  TIP3      6798            0.0000000000
     45293      6998  TIP3      H1             26.3535463214      -20.3212666884      -33.3786119703  TIP3      6798            0.0000000000
     45294      6998  TIP3      H2             25.7211810156      -19.5953859855      -34.5193184735  TIP3      6798            0.0000000000
     45295      6999  TIP3      OH2            26.3295576645      -18.1568123670      -31.0623732523  TIP3      6799            0.0000000000
     45296      6999  TIP3      H1             26.1280874524      -18.5790179593      -31.9181925255  TIP3      6799            0.0000000000
     45297      6999  TIP3      H2             26.0620037393      -17.2413892505      -31.2588044331  TIP3      6799            0.0000000000
     45298      7000  TIP3      OH2            25.6663965767       -1.1859019542      -48.0467459675  TIP3      6800            0.0000000000
     45299      7000  TIP3      H1             26.6247017894       -1.0951106212      -47.9298102950  TIP3      6800            0.0000000000
     45300      7000  TIP3      H2             25.4430926377       -0.4845637211      -48.6666469997  TIP3      6800            0.0000000000
     45301      7001  TIP3      OH2            19.7097792392       -6.1149439235      -48.4592556178  TIP3      6801            0.0000000000
     45302      7001  TIP3      H1             20.6749520575       -6.2216974922      -48.2842915650  TIP3      6801            0.0000000000
     45303      7001  TIP3      H2             19.5426193603       -6.7768385848      -49.1488865737  TIP3      6801            0.0000000000
     45304      7002  TIP3      OH2            18.3247848641       -1.1807681959      -43.7368807878  TIP3      6802            0.0000000000
     45305      7002  TIP3      H1             17.5483181135       -1.7037040642      -44.0468968146  TIP3      6802            0.0000000000
     45306      7002  TIP3      H2             18.6597068259       -1.7583970866      -43.0157985996  TIP3      6802            0.0000000000
     45307      7003  TIP3      OH2            19.2054170899       -2.8489432249      -41.8872308883  TIP3      6803            0.0000000000
     45308      7003  TIP3      H1             18.5542581167       -3.4951762501      -41.5693911698  TIP3      6803            0.0000000000
     45309      7003  TIP3      H2             19.7983668228       -2.7510655449      -41.1066207475  TIP3      6803            0.0000000000
     45310      7004  TIP3      OH2            37.2175660916       -2.4436195587      -38.8669520249  TIP3      6804            0.0000000000
     45311      7004  TIP3      H1             37.3116263944       -2.3666710481      -37.9020442752  TIP3      6804            0.0000000000
     45312      7004  TIP3      H2             37.1818117166       -1.5031539064      -39.1116037359  TIP3      6804            0.0000000000
     45313      7005  TIP3      OH2            36.3058247034       -2.6419977525      -35.9818006169  TIP3      6805            0.0000000000
     45314      7005  TIP3      H1             35.7718097207       -3.3034214230      -36.4724742366  TIP3      6805            0.0000000000
     45315      7005  TIP3      H2             36.5609320334       -3.2039127497      -35.2124188970  TIP3      6805            0.0000000000
     45316      7006  TIP3      OH2            34.7732744934       -6.6970535085      -31.1188432532  TIP3      6806            0.0000000000
     45317      7006  TIP3      H1             33.9071938405       -6.6116774782      -30.6762370465  TIP3      6806            0.0000000000
     45318      7006  TIP3      H2             35.1965948119       -5.8596561626      -30.8565304568  TIP3      6806            0.0000000000
     45319      7007  TIP3      OH2            35.9966920161       -8.4265332094      -46.1396719281  TIP3      6807            0.0000000000
     45320      7007  TIP3      H1             36.8773984545       -8.0323381796      -46.0550561438  TIP3      6807            0.0000000000
     45321      7007  TIP3      H2             36.0363287295       -9.1090976097      -45.4419882560  TIP3      6807            0.0000000000
     45322      7008  TIP3      OH2            36.4210364955      -10.4612029176      -44.1422678183  TIP3      6808            0.0000000000
     45323      7008  TIP3      H1             35.4709116562      -10.6253465349      -43.9408315874  TIP3      6808            0.0000000000
     45324      7008  TIP3      H2             36.7847968855      -10.4812314295      -43.2401064860  TIP3      6808            0.0000000000
     45325      7009  TIP3      OH2            36.5322172621       -7.8491740370      -38.9436929571  TIP3      6809            0.0000000000
     45326      7009  TIP3      H1             37.3182010906       -8.0476388560      -39.4746495549  TIP3      6809            0.0000000000
     45327      7009  TIP3      H2             36.5850022911       -6.8665285248      -38.9850974970  TIP3      6809            0.0000000000
     45328      7010  TIP3      OH2            34.7363474580       -4.7253605912      -36.7604779965  TIP3      6810            0.0000000000
     45329      7010  TIP3      H1             33.9388797091       -4.4042997405      -36.3094739753  TIP3      6810            0.0000000000
     45330      7010  TIP3      H2             34.4255423472       -4.8903024870      -37.6713106779  TIP3      6810            0.0000000000
     45331      7011  TIP3      OH2            36.5738034470      -10.4222058348      -47.8851607213  TIP3      6811            0.0000000000
     45332      7011  TIP3      H1             35.8727819084      -10.0790154057      -48.4603973718  TIP3      6811            0.0000000000
     45333      7011  TIP3      H2             36.6084387568       -9.6885513155      -47.2418729085  TIP3      6811            0.0000000000
     45334      7012  TIP3      OH2            35.0348401780      -13.7980250185      -48.6933596404  TIP3      6812            0.0000000000
     45335      7012  TIP3      H1             35.3965687846      -13.0210543484      -49.1538791060  TIP3      6812            0.0000000000
     45336      7012  TIP3      H2             35.1484362023      -14.4833929745      -49.3644339756  TIP3      6812            0.0000000000
     45337      7013  TIP3      OH2            34.1447153885      -11.4602297295      -43.1692564658  TIP3      6813            0.0000000000
     45338      7013  TIP3      H1             33.9029930190      -12.3595437194      -43.4488736986  TIP3      6813            0.0000000000
     45339      7013  TIP3      H2             33.8340696505      -11.4379460805      -42.2352490755  TIP3      6813            0.0000000000
     45340      7014  TIP3      OH2            19.1109139470       -9.3587549325      -39.1047021072  TIP3      6814            0.0000000000
     45341      7014  TIP3      H1             19.1922057313       -9.6783652518      -40.0305684381  TIP3      6814            0.0000000000
     45342      7014  TIP3      H2             19.9777677152       -9.6780875306      -38.7582945588  TIP3      6814            0.0000000000
     45343      7015  TIP3      OH2            34.9632051764       -9.9161111464      -33.7434916751  TIP3      6815            0.0000000000
     45344      7015  TIP3      H1             35.7047746291      -10.5216324552      -33.9387666070  TIP3      6815            0.0000000000
     45345      7015  TIP3      H2             35.4283725103       -9.0598078525      -33.8577211945  TIP3      6815            0.0000000000
     45346      7016  TIP3      OH2            36.4377313486      -12.1448022647      -33.4772537704  TIP3      6816            0.0000000000
     45347      7016  TIP3      H1             35.4558065289      -12.1338487295      -33.4194157781  TIP3      6816            0.0000000000
     45348      7016  TIP3      H2             36.6343947687      -13.0411276385      -33.1053888773  TIP3      6816            0.0000000000
     45349      7017  TIP3      OH2            34.1559479952      -16.4264091525      -50.1170646010  TIP3      6817            0.0000000000
     45350      7017  TIP3      H1             34.8649240789      -16.7301045203      -49.5239038977  TIP3      6817            0.0000000000
     45351      7017  TIP3      H2             33.4871328105      -16.0845787806      -49.5077467588  TIP3      6817            0.0000000000
     45352      7018  TIP3      OH2            33.9587438966      -13.9140154217      -44.9739737171  TIP3      6818            0.0000000000
     45353      7018  TIP3      H1             33.9360405612      -14.8872910744      -44.8416613418  TIP3      6818            0.0000000000
     45354      7018  TIP3      H2             34.9212539776      -13.7595925859      -44.9485903167  TIP3      6818            0.0000000000
     45355      7019  TIP3      OH2            34.1101562314      -13.3737267699      -39.3757045246  TIP3      6819            0.0000000000
     45356      7019  TIP3      H1             35.0727659298      -13.5259839179      -39.5468135652  TIP3      6819            0.0000000000
     45357      7019  TIP3      H2             34.0788142729      -13.5186104272      -38.4137171385  TIP3      6819            0.0000000000
     45358      7020  TIP3      OH2            34.4679687255      -13.0158430499      -36.5475888582  TIP3      6820            0.0000000000
     45359      7020  TIP3      H1             33.5944087262      -12.6025334792      -36.3802138263  TIP3      6820            0.0000000000
     45360      7020  TIP3      H2             35.0078889658      -12.2199739374      -36.7541586897  TIP3      6820            0.0000000000
     45361      7021  TIP3      OH2            18.7647406622      -14.7356048475      -33.3075500392  TIP3      6821            0.0000000000
     45362      7021  TIP3      H1             19.6656705503      -14.8523360202      -32.9349025944  TIP3      6821            0.0000000000
     45363      7021  TIP3      H2             18.2366991895      -15.3302816710      -32.7537782386  TIP3      6821            0.0000000000
     45364      7022  TIP3      OH2            36.7065252474      -19.2906886471      -31.5646886461  TIP3      6822            0.0000000000
     45365      7022  TIP3      H1             37.2072810354      -19.7964115828      -32.2165539103  TIP3      6822            0.0000000000
     45366      7022  TIP3      H2             36.5814881642      -18.4623493060      -32.0803506319  TIP3      6822            0.0000000000
     45367      7023  TIP3      OH2            34.2319434193      -16.5613172139      -44.8971012164  TIP3      6823            0.0000000000
     45368      7023  TIP3      H1             34.5590155239      -16.9286035649      -44.0484976550  TIP3      6823            0.0000000000
     45369      7023  TIP3      H2             33.7775811899      -17.3487442559      -45.2409053950  TIP3      6823            0.0000000000
     45370      7024  TIP3      OH2            20.0626250726      -16.1708357405      -39.6253748761  TIP3      6824            0.0000000000
     45371      7024  TIP3      H1             20.5021167838      -17.0438839348      -39.6943508947  TIP3      6824            0.0000000000
     45372      7024  TIP3      H2             20.7619677639      -15.5338384090      -39.8501472928  TIP3      6824            0.0000000000
     45373      7025  TIP3      OH2            18.5524330299      -13.0797355696      -39.2259922483  TIP3      6825            0.0000000000
     45374      7025  TIP3      H1             19.0926090337      -13.2741941511      -40.0168032513  TIP3      6825            0.0000000000
     45375      7025  TIP3      H2             18.9869212306      -12.2709520105      -38.9430064686  TIP3      6825            0.0000000000
     45376      7026  TIP3      OH2            36.1808154645      -17.0406510647      -32.9069001234  TIP3      6826            0.0000000000
     45377      7026  TIP3      H1             35.3805148137      -16.5592418250      -32.5671869603  TIP3      6826            0.0000000000
     45378      7026  TIP3      H2             35.8367409370      -17.3324185013      -33.7730277726  TIP3      6826            0.0000000000
     45379      7027  TIP3      OH2            36.6268244448      -17.0397842725      -48.5369228625  TIP3      6827            0.0000000000
     45380      7027  TIP3      H1             37.2077169488      -17.7889131418      -48.7507556785  TIP3      6827            0.0000000000
     45381      7027  TIP3      H2             37.0993250200      -16.3128858457      -48.9704137773  TIP3      6827            0.0000000000
     45382      7028  TIP3      OH2            18.6953228350      -16.8656745095      -45.1846591806  TIP3      6828            0.0000000000
     45383      7028  TIP3      H1             17.7758990067      -16.5710327772      -45.1152830157  TIP3      6828            0.0000000000
     45384      7028  TIP3      H2             18.9518924737      -16.4489816542      -46.0328334771  TIP3      6828            0.0000000000
     45385      7029  TIP3      OH2            33.4142286029       -2.1815894254      -43.2613775922  TIP3      6829            0.0000000000
     45386      7029  TIP3      H1             34.0055424330       -2.3248588367      -44.0258874047  TIP3      6829            0.0000000000
     45387      7029  TIP3      H2             33.9720016094       -1.6475017525      -42.6820654730  TIP3      6829            0.0000000000
     45388      7030  TIP3      OH2            18.7867494224      -18.2701609628      -36.8688882857  TIP3      6830            0.0000000000
     45389      7030  TIP3      H1             18.0462648911      -18.7857848934      -36.4990809733  TIP3      6830            0.0000000000
     45390      7030  TIP3      H2             18.3414527455      -17.6130837007      -37.4405524760  TIP3      6830            0.0000000000
     45391      7031  TIP3      OH2            21.0899903503       -5.0868513260      -32.7997037894  TIP3      6831            0.0000000000
     45392      7031  TIP3      H1             20.5148364452       -4.4482025854      -33.2499411241  TIP3      6831            0.0000000000
     45393      7031  TIP3      H2             20.7250366185       -5.0617069884      -31.9137657672  TIP3      6831            0.0000000000
     45394      7032  TIP3      OH2            23.7485760765       -3.6984121690      -36.5013535292  TIP3      6832            0.0000000000
     45395      7032  TIP3      H1             23.6460219979       -2.7301878148      -36.4119607792  TIP3      6832            0.0000000000
     45396      7032  TIP3      H2             24.7049483556       -3.7799136804      -36.3023026388  TIP3      6832            0.0000000000
     45397      7033  TIP3      OH2            27.9813557035       -2.3609293975      -33.3078291568  TIP3      6833            0.0000000000
     45398      7033  TIP3      H1             28.1798452080       -2.5098707593      -32.3634637576  TIP3      6833            0.0000000000
     45399      7033  TIP3      H2             28.8881070418       -2.1711977414      -33.6509875854  TIP3      6833            0.0000000000
     45400      7034  TIP3      OH2            30.2438286968       -1.1348785558      -34.1279333535  TIP3      6834            0.0000000000
     45401      7034  TIP3      H1             31.0097274117       -1.4602735259      -34.6136389041  TIP3      6834            0.0000000000
     45402      7034  TIP3      H2             30.6198727677       -0.4627785619      -33.5403346450  TIP3      6834            0.0000000000
     45403      7035  TIP3      OH2            35.0591671988      -18.7241212523      -34.8354743730  TIP3      6835            0.0000000000
     45404      7035  TIP3      H1             34.3014948937      -18.3338868784      -35.2992801757  TIP3      6835            0.0000000000
     45405      7035  TIP3      H2             35.1495435554      -19.5870601755      -35.2952806920  TIP3      6835            0.0000000000
     45406      7036  TIP3      OH2            21.2577516310       -0.5496340949      -37.0936588798  TIP3      6836            0.0000000000
     45407      7036  TIP3      H1             20.4767525856        0.0318692618      -37.1105574671  TIP3      6836            0.0000000000
     45408      7036  TIP3      H2             21.2679564600       -0.9108884201      -36.1757527585  TIP3      6836            0.0000000000
     45409      7037  TIP3      OH2            23.8349169906       -1.0496636813      -37.4554136133  TIP3      6837            0.0000000000
     45410      7037  TIP3      H1             22.8780646174       -0.9333295675      -37.2151092059  TIP3      6837            0.0000000000
     45411      7037  TIP3      H2             23.8313343573       -0.4957801705      -38.2538481847  TIP3      6837            0.0000000000
     45412      7038  TIP3      OH2            28.3859349719       -1.4708021194      -38.2860516359  TIP3      6838            0.0000000000
     45413      7038  TIP3      H1             27.7520684791       -1.0195630612      -38.8601429404  TIP3      6838            0.0000000000
     45414      7038  TIP3      H2             28.5702250000       -0.7831483165      -37.6176454486  TIP3      6838            0.0000000000
     45415      7039  TIP3      OH2            30.2696792523       -2.7389201300      -36.7322462834  TIP3      6839            0.0000000000
     45416      7039  TIP3      H1             29.6265344590       -2.4593371085      -37.4195363694  TIP3      6839            0.0000000000
     45417      7039  TIP3      H2             31.0025528660       -2.1331579637      -36.9488991161  TIP3      6839            0.0000000000
     45418      7040  TIP3      OH2            32.8229393609       -1.4434958120      -37.1960201091  TIP3      6840            0.0000000000
     45419      7040  TIP3      H1             32.9165916697       -0.5435079825      -37.5284945496  TIP3      6840            0.0000000000
     45420      7040  TIP3      H2             33.3900592252       -1.9437621190      -37.8321818627  TIP3      6840            0.0000000000
     45421      7041  TIP3      OH2            20.7242258016       -2.3267273676      -39.6581519524  TIP3      6841            0.0000000000
     45422      7041  TIP3      H1             20.5483472168       -2.8113405636      -38.8203487057  TIP3      6841            0.0000000000
     45423      7041  TIP3      H2             21.6610650269       -2.6107077690      -39.8124601700  TIP3      6841            0.0000000000
     45424      7042  TIP3      OH2            22.9626178348       -3.2590669878      -40.6994700915  TIP3      6842            0.0000000000
     45425      7042  TIP3      H1             22.8927223983       -4.2325568341      -40.5803660483  TIP3      6842            0.0000000000
     45426      7042  TIP3      H2             23.8746950228       -3.1064770829      -40.3673716356  TIP3      6842            0.0000000000
     45427      7043  TIP3      OH2            25.2835722755       -3.1527443704      -39.4977076509  TIP3      6843            0.0000000000
     45428      7043  TIP3      H1             25.6920180840       -4.0205189611      -39.6459298259  TIP3      6843            0.0000000000
     45429      7043  TIP3      H2             25.1133582593       -3.1906397107      -38.5363564835  TIP3      6843            0.0000000000
     45430      7044  TIP3      OH2            28.5212326474      -17.4146386707      -41.3326237069  TIP3      6844            0.0000000000
     45431      7044  TIP3      H1             27.8715452168      -17.8093794679      -40.7294766881  TIP3      6844            0.0000000000
     45432      7044  TIP3      H2             29.1189149766      -18.1582766025      -41.4591914200  TIP3      6844            0.0000000000
     45433      7045  TIP3      OH2            33.8182865751      -19.1767564058      -40.6731590234  TIP3      6845            0.0000000000
     45434      7045  TIP3      H1             34.2818635131      -18.6051899170      -41.3214021278  TIP3      6845            0.0000000000
     45435      7045  TIP3      H2             32.8954128904      -18.9493924926      -40.9087843294  TIP3      6845            0.0000000000
     45436      7046  TIP3      OH2            35.1566340176      -17.8843318422      -42.6745475552  TIP3      6846            0.0000000000
     45437      7046  TIP3      H1             35.8465376451      -18.5464078385      -42.9148271550  TIP3      6846            0.0000000000
     45438      7046  TIP3      H2             35.7437073766      -17.1726749055      -42.3345034126  TIP3      6846            0.0000000000
     45439      7047  TIP3      OH2            21.2694452767      -18.9788768276      -42.9300069570  TIP3      6847            0.0000000000
     45440      7047  TIP3      H1             20.4232701399      -19.1004182964      -43.3996368604  TIP3      6847            0.0000000000
     45441      7047  TIP3      H2             21.6379144495      -19.8950903427      -43.0060599122  TIP3      6847            0.0000000000
     45442      7048  TIP3      OH2            19.8272569810      -19.0061077506      -47.3563008309  TIP3      6848            0.0000000000
     45443      7048  TIP3      H1             20.4251516534      -18.3526327103      -47.7888139703  TIP3      6848            0.0000000000
     45444      7048  TIP3      H2             19.4173131397      -18.4856665756      -46.6414750367  TIP3      6848            0.0000000000
     45445      7049  TIP3      OH2            25.5648936227      -19.4047155442      -43.1501743478  TIP3      6849            0.0000000000
     45446      7049  TIP3      H1             26.2920204510      -18.9790916997      -43.6228893635  TIP3      6849            0.0000000000
     45447      7049  TIP3      H2             25.6878957309      -19.0722169182      -42.2469704209  TIP3      6849            0.0000000000
     45448      7050  TIP3      OH2            31.2229378643      -18.6157543495      -41.5303415628  TIP3      6850            0.0000000000
     45449      7050  TIP3      H1             31.0854775261      -18.5404912418      -42.4823492712  TIP3      6850            0.0000000000
     45450      7050  TIP3      H2             30.8083693612      -19.4993911243      -41.3425597729  TIP3      6850            0.0000000000
     45451      7051  TIP3      OH2            32.6928930412      -18.8587439942      -45.8846435332  TIP3      6851            0.0000000000
     45452      7051  TIP3      H1             31.9490049300      -18.3172926492      -45.5709227517  TIP3      6851            0.0000000000
     45453      7051  TIP3      H2             32.3850334543      -19.7640452170      -45.6584261872  TIP3      6851            0.0000000000
     45454      7052  TIP3      OH2            19.8286468685       -2.9828802362      -46.2216572777  TIP3      6852            0.0000000000
     45455      7052  TIP3      H1             18.9769563769       -2.9635881596      -46.6912778608  TIP3      6852            0.0000000000
     45456      7052  TIP3      H2             20.0345861863       -2.0377784657      -46.2456843193  TIP3      6852            0.0000000000
     45457      7053  TIP3      OH2            21.7003451481      -17.6352389677      -48.7608899567  TIP3      6853            0.0000000000
     45458      7053  TIP3      H1             22.4221954447      -18.2736056987      -48.6436416426  TIP3      6853            0.0000000000
     45459      7053  TIP3      H2             22.0004771362      -16.8689524588      -48.2595383208  TIP3      6853            0.0000000000
     45460      7054  TIP3      OH2            27.1713083851      -16.5365270032      -46.3087459498  TIP3      6854            0.0000000000
     45461      7054  TIP3      H1             27.6873440360      -17.0316915816      -45.6393347389  TIP3      6854            0.0000000000
     45462      7054  TIP3      H2             27.3402205135      -15.6465087912      -45.9470602781  TIP3      6854            0.0000000000
     45463      7055  TIP3      OH2            28.5869641236       -1.5897555203      -48.2557838045  TIP3      6855            0.0000000000
     45464      7055  TIP3      H1             29.5692263318       -1.4518967917      -48.3456420582  TIP3      6855            0.0000000000
     45465      7055  TIP3      H2             28.4307102799       -2.0868849285      -49.0758581153  TIP3      6855            0.0000000000
     45466      7056  TIP3      OH2            35.2499711239       -2.2430860299      -45.2555370103  TIP3      6856            0.0000000000
     45467      7056  TIP3      H1             35.2038523675       -3.1830600502      -45.5478412644  TIP3      6856            0.0000000000
     45468      7056  TIP3      H2             35.1414881133       -1.7777990771      -46.1040910229  TIP3      6856            0.0000000000
     45469      7057  TIP3      OH2            20.9525378391      -18.0451850413      -33.3946282872  TIP3      6857            0.0000000000
     45470      7057  TIP3      H1             20.4375911623      -18.8682175707      -33.4260541414  TIP3      6857            0.0000000000
     45471      7057  TIP3      H2             21.7591200405      -18.3215731016      -32.8936952437  TIP3      6857            0.0000000000
     45472      7058  TIP3      OH2            23.0848403987      -18.9385560881      -31.7973361286  TIP3      6858            0.0000000000
     45473      7058  TIP3      H1             24.0084132462      -18.8987714793      -32.1172341375  TIP3      6858            0.0000000000
     45474      7058  TIP3      H2             23.1360183980      -19.8163665134      -31.3840942307  TIP3      6858            0.0000000000
     45475      7059  TIP3      OH2            21.9748159391       -1.7664906793      -48.6824322341  TIP3      6859            0.0000000000
     45476      7059  TIP3      H1             21.3419935522       -1.4967673032      -47.9934400299  TIP3      6859            0.0000000000
     45477      7059  TIP3      H2             22.4136307303       -2.5406986809      -48.3103423041  TIP3      6859            0.0000000000
     45478      7060  TIP3      OH2            31.3433184518      -19.3684323930      -31.5629768268  TIP3      6860            0.0000000000
     45479      7060  TIP3      H1             31.4150479191      -19.9158275175      -30.7356844556  TIP3      6860            0.0000000000
     45480      7060  TIP3      H2             32.2055867851      -19.5877258342      -31.9715182807  TIP3      6860            0.0000000000
     45481      7061  TIP3      OH2            34.5381132379       -3.5328455861      -33.2338665332  TIP3      6861            0.0000000000
     45482      7061  TIP3      H1             34.0296926592       -3.4428103707      -34.0651042201  TIP3      6861            0.0000000000
     45483      7061  TIP3      H2             34.3879198657       -2.6397248939      -32.8692757913  TIP3      6861            0.0000000000
     45484      7062  TIP3      OH2            37.3384757842      -13.0475303243      -44.1979466550  TIP3      6862            0.0000000000
     45485      7062  TIP3      H1             37.1320655130      -12.0908867319      -44.2204810421  TIP3      6862            0.0000000000
     45486      7062  TIP3      H2             37.1498172257      -13.2877468645      -45.1361848891  TIP3      6862            0.0000000000
     45487      7063  TIP3      OH2            37.4975803234       -8.2034324784      -36.4450911080  TIP3      6863            0.0000000000
     45488      7063  TIP3      H1             37.0185487885       -8.2457557868      -37.3037987874  TIP3      6863            0.0000000000
     45489      7063  TIP3      H2             37.4494054421       -9.1231532549      -36.1161181658  TIP3      6863            0.0000000000
     45490      7064  TIP3      OH2            37.0882833286       -5.3211524301      -39.6818701775  TIP3      6864            0.0000000000
     45491      7064  TIP3      H1             37.9783733008       -5.3427278314      -40.0968813058  TIP3      6864            0.0000000000
     45492      7064  TIP3      H2             37.2115814946       -4.5562128850      -39.0959333482  TIP3      6864            0.0000000000
     45493      7065  TIP3      OH2            37.0033569685      -15.9750090523      -42.6415893096  TIP3      6865            0.0000000000
     45494      7065  TIP3      H1             37.8923656199      -15.5917457319      -42.4680924275  TIP3      6865            0.0000000000
     45495      7065  TIP3      H2             36.9859946891      -15.8985540763      -43.6082118210  TIP3      6865            0.0000000000
     45496      7066  TIP3      OH2            37.6055131313      -10.7965813325      -35.4666624668  TIP3      6866            0.0000000000
     45497      7066  TIP3      H1             37.3908859772      -11.3920685008      -34.7177494155  TIP3      6866            0.0000000000
     45498      7066  TIP3      H2             36.8558030600      -10.9918696115      -36.0698098619  TIP3      6866            0.0000000000
     45499      7067  TIP3      OH2            38.0665387836       -8.8440337904      -32.3390632808  TIP3      6867            0.0000000000
     45500      7067  TIP3      H1             37.5062490622       -9.5415188528      -31.9585489338  TIP3      6867            0.0000000000
     45501      7067  TIP3      H2             37.4189406542       -8.3191297388      -32.8710948936  TIP3      6867            0.0000000000
     45502      7068  TIP3      OH2            36.7277451104       -1.0238540535      -43.3576955045  TIP3      6868            0.0000000000
     45503      7068  TIP3      H1             36.1543300201       -1.4000952490      -44.0611890093  TIP3      6868            0.0000000000
     45504      7068  TIP3      H2             36.9050002623       -1.8472230231      -42.8444541088  TIP3      6868            0.0000000000
     45505      7069  TIP3      OH2            37.2110326197       -3.2492035837      -41.9384416619  TIP3      6869            0.0000000000
     45506      7069  TIP3      H1             36.7004502356       -4.0436472610      -41.7321831396  TIP3      6869            0.0000000000
     45507      7069  TIP3      H2             37.6138954251       -3.0666021138      -41.0710391772  TIP3      6869            0.0000000000
     45508      7070  TIP3      OH2            37.9006959363      -10.3973153658      -39.0052871065  TIP3      6870            0.0000000000
     45509      7070  TIP3      H1             37.6803176791      -10.1180794677      -39.9076223618  TIP3      6870            0.0000000000
     45510      7070  TIP3      H2             38.6749933178       -9.8144265058      -38.8544784012  TIP3      6870            0.0000000000
     45511      7071  TIP3      OH2            37.1293754311      -14.5911456651      -32.8313999511  TIP3      6871            0.0000000000
     45512      7071  TIP3      H1             38.0971072474      -14.5382221851      -32.9629522129  TIP3      6871            0.0000000000
     45513      7071  TIP3      H2             36.9698558669      -15.5597729913      -32.8340968304  TIP3      6871            0.0000000000
     45514      7072  TIP3      OH2            36.7285281321      -13.1867373218      -39.7062660754  TIP3      6872            0.0000000000
     45515      7072  TIP3      H1             37.6837083738      -13.4132331990      -39.6109487446  TIP3      6872            0.0000000000
     45516      7072  TIP3      H2             36.8358110679      -12.2292459785      -39.6568389966  TIP3      6872            0.0000000000
     45517      7073  TIP3      OH2            36.7646921916      -16.5497968370      -45.7170791662  TIP3      6873            0.0000000000
     45518      7073  TIP3      H1             35.8076848694      -16.3844008634      -45.5839765260  TIP3      6873            0.0000000000
     45519      7073  TIP3      H2             36.8265851397      -16.5254096082      -46.6938258440  TIP3      6873            0.0000000000
     45520      7074  TIP3      OH2            36.3161226220      -18.5073220424      -37.2816276210  TIP3      6874            0.0000000000
     45521      7074  TIP3      H1             36.2212554222      -18.3719686957      -36.3184202929  TIP3      6874            0.0000000000
     45522      7074  TIP3      H2             35.9582172947      -17.6794126946      -37.6582568714  TIP3      6874            0.0000000000
     45523      7075  TIP3      OH2           -26.0951391459        9.3912265534      -43.1161867442  TIP3      6875            0.0000000000
     45524      7075  TIP3      H1            -26.1533064673       10.2803667942      -42.7212976000  TIP3      6875            0.0000000000
     45525      7075  TIP3      H2            -26.7958245489        9.4604359789      -43.7873034294  TIP3      6875            0.0000000000
     45526      7076  TIP3      OH2           -27.3126544293        8.3269250884      -39.6700537745  TIP3      6876            0.0000000000
     45527      7076  TIP3      H1            -27.2407311405        7.8792554217      -38.7897865063  TIP3      6876            0.0000000000
     45528      7076  TIP3      H2            -27.9469478638        7.7485799262      -40.1292726861  TIP3      6876            0.0000000000
     45529      7077  TIP3      OH2           -34.9917966110        8.2593758486      -38.0643615967  TIP3      6877            0.0000000000
     45530      7077  TIP3      H1            -35.1300960602        7.3879969657      -37.6547933899  TIP3      6877            0.0000000000
     45531      7077  TIP3      H2            -34.4157703891        8.6383021675      -37.3600876516  TIP3      6877            0.0000000000
     45532      7078  TIP3      OH2           -24.2137575219       11.3210139783      -41.2230428021  TIP3      6878            0.0000000000
     45533      7078  TIP3      H1            -24.4082780085       10.5956693039      -40.6019083546  TIP3      6878            0.0000000000
     45534      7078  TIP3      H2            -24.0437059142       12.0544821891      -40.6110113717  TIP3      6878            0.0000000000
     45535      7079  TIP3      OH2           -34.9015250978       12.7051454670      -40.2143586380  TIP3      6879            0.0000000000
     45536      7079  TIP3      H1            -35.1024090370       11.7682128006      -40.4185001931  TIP3      6879            0.0000000000
     45537      7079  TIP3      H2            -33.9595851554       12.6827494951      -40.0101366772  TIP3      6879            0.0000000000
     45538      7080  TIP3      OH2           -36.9849343236        6.0257114034      -44.8483045887  TIP3      6880            0.0000000000
     45539      7080  TIP3      H1            -37.0116090990        6.7706798193      -44.2393098667  TIP3      6880            0.0000000000
     45540      7080  TIP3      H2            -37.9481136192        5.8272528238      -44.8551458629  TIP3      6880            0.0000000000
     45541      7081  TIP3      OH2           -36.9685646470        8.5232266777      -41.8267874732  TIP3      6881            0.0000000000
     45542      7081  TIP3      H1            -36.7868807425        7.6135016640      -41.5203183202  TIP3      6881            0.0000000000
     45543      7081  TIP3      H2            -37.6933308915        8.4348966798      -42.4555067663  TIP3      6881            0.0000000000
     45544      7082  TIP3      OH2           -26.5425117287       16.8437082202      -40.9553483338  TIP3      6882            0.0000000000
     45545      7082  TIP3      H1            -25.8800362749       16.3073345673      -41.4572863431  TIP3      6882            0.0000000000
     45546      7082  TIP3      H2            -27.0469219291       16.1084328522      -40.5831331893  TIP3      6882            0.0000000000
     45547      7083  TIP3      OH2           -29.1408530166       11.3142441889      -39.0379180539  TIP3      6883            0.0000000000
     45548      7083  TIP3      H1            -28.9034604276       10.5743017341      -39.6186983509  TIP3      6883            0.0000000000
     45549      7083  TIP3      H2            -28.2788856184       11.4866898953      -38.5949150848  TIP3      6883            0.0000000000
     45550      7084  TIP3      OH2           -20.5587494122        2.4626094100      -38.8241434499  TIP3      6884            0.0000000000
     45551      7084  TIP3      H1            -20.5006835839        3.0403831122      -38.0332496525  TIP3      6884            0.0000000000
     45552      7084  TIP3      H2            -19.7284398870        2.6946710750      -39.2731419004  TIP3      6884            0.0000000000
     45553      7085  TIP3      OH2           -25.3614908873        5.4628021136      -38.6196549348  TIP3      6885            0.0000000000
     45554      7085  TIP3      H1            -25.2558980471        4.5023536521      -38.4840543250  TIP3      6885            0.0000000000
     45555      7085  TIP3      H2            -25.7241086510        5.4610327013      -39.5230870151  TIP3      6885            0.0000000000
     45556      7086  TIP3      OH2           -32.5255034345        3.3278403947      -41.8521943175  TIP3      6886            0.0000000000
     45557      7086  TIP3      H1            -32.4969074099        4.1600865464      -42.3703118348  TIP3      6886            0.0000000000
     45558      7086  TIP3      H2            -32.9601872098        2.7401325909      -42.4964527811  TIP3      6886            0.0000000000
     45559      7087  TIP3      OH2           -25.1520056206        3.4594914783      -43.3408628604  TIP3      6887            0.0000000000
     45560      7087  TIP3      H1            -24.6519630247        3.2150058223      -42.5277277726  TIP3      6887            0.0000000000
     45561      7087  TIP3      H2            -24.6091138934        4.1879650825      -43.6724362922  TIP3      6887            0.0000000000
     45562      7088  TIP3      OH2           -35.3978108051        6.3420496201      -41.4254865685  TIP3      6888            0.0000000000
     45563      7088  TIP3      H1            -34.9488038663        5.7203431561      -40.8061874066  TIP3      6888            0.0000000000
     45564      7088  TIP3      H2            -35.5892834144        5.7035399293      -42.1346041474  TIP3      6888            0.0000000000
     45565      7089  TIP3      OH2           -31.1184156845        7.4989365077      -41.5192378270  TIP3      6889            0.0000000000
     45566      7089  TIP3      H1            -30.2960794176        7.0532660768      -41.2466585077  TIP3      6889            0.0000000000
     45567      7089  TIP3      H2            -31.5948765226        6.7367856128      -41.9090651402  TIP3      6889            0.0000000000
     45568      7090  TIP3      OH2           -20.3945125683        3.8610386663      -36.4106663494  TIP3      6890            0.0000000000
     45569      7090  TIP3      H1            -20.7322376266        4.7147184377      -36.7730385294  TIP3      6890            0.0000000000
     45570      7090  TIP3      H2            -20.3184966130        4.1041812963      -35.4728357438  TIP3      6890            0.0000000000
     45571      7091  TIP3      OH2           -33.6823574237        2.5242242067      -37.7848088824  TIP3      6891            0.0000000000
     45572      7091  TIP3      H1            -33.9818056429        2.9358560647      -38.6181304272  TIP3      6891            0.0000000000
     45573      7091  TIP3      H2            -34.2847679059        2.9608299035      -37.1525644520  TIP3      6891            0.0000000000
     45574      7092  TIP3      OH2           -27.0101170746       11.8603492782      -44.2849919330  TIP3      6892            0.0000000000
     45575      7092  TIP3      H1            -27.0175014376       11.8741083381      -45.2613835520  TIP3      6892            0.0000000000
     45576      7092  TIP3      H2            -27.2791389872       12.7827755088      -44.0919329035  TIP3      6892            0.0000000000
     45577      7093  TIP3      OH2           -31.2387864909       10.1633913089      -37.7722318910  TIP3      6893            0.0000000000
     45578      7093  TIP3      H1            -31.8747156576       10.8488819115      -37.4720532174  TIP3      6893            0.0000000000
     45579      7093  TIP3      H2            -30.5837925418       10.7229614407      -38.2430813943  TIP3      6893            0.0000000000
     45580      7094  TIP3      OH2           -23.4041825759        3.2823334807      -41.3240001722  TIP3      6894            0.0000000000
     45581      7094  TIP3      H1            -23.5543947455        2.4453678830      -40.8787909525  TIP3      6894            0.0000000000
     45582      7094  TIP3      H2            -22.5168592298        3.5113522029      -41.0025445896  TIP3      6894            0.0000000000
     45583      7095  TIP3      OH2           -34.3015767321        4.4233801621      -39.9258258998  TIP3      6895            0.0000000000
     45584      7095  TIP3      H1            -33.7043599849        4.9701454029      -39.3559673630  TIP3      6895            0.0000000000
     45585      7095  TIP3      H2            -33.6596234421        4.0985580850      -40.5922797759  TIP3      6895            0.0000000000
     45586      7096  TIP3      OH2           -32.8096346388       12.2752870430      -36.9802993346  TIP3      6896            0.0000000000
     45587      7096  TIP3      H1            -32.8641887245       13.0523571509      -37.5522951495  TIP3      6896            0.0000000000
     45588      7096  TIP3      H2            -33.7067372601       12.2682728448      -36.5765567195  TIP3      6896            0.0000000000
     45589      7097  TIP3      OH2           -37.1781520629       11.4868117229      -45.8032796139  TIP3      6897            0.0000000000
     45590      7097  TIP3      H1            -37.2585620915       11.9018117204      -46.6939015984  TIP3      6897            0.0000000000
     45591      7097  TIP3      H2            -36.9176549986       12.2420361717      -45.2371386715  TIP3      6897            0.0000000000
     45592      7098  TIP3      OH2           -23.2590294904       13.3795116842      -39.1810405374  TIP3      6898            0.0000000000
     45593      7098  TIP3      H1            -24.1990815462       13.5803146115      -39.0034881096  TIP3      6898            0.0000000000
     45594      7098  TIP3      H2            -23.0063776118       14.2382215875      -39.5606454332  TIP3      6898            0.0000000000
     45595      7099  TIP3      OH2           -23.4542397693        1.9105511709      -38.0105284637  TIP3      6899            0.0000000000
     45596      7099  TIP3      H1            -24.2370852727        2.2439846369      -38.5100299580  TIP3      6899            0.0000000000
     45597      7099  TIP3      H2            -22.7209392308        2.1558098293      -38.5972543885  TIP3      6899            0.0000000000
     45598      7100  TIP3      OH2           -30.1954395222       -0.0816413569      -40.5089490783  TIP3      6900            0.0000000000
     45599      7100  TIP3      H1            -30.5075928093       -0.9956835275      -40.4579351486  TIP3      6900            0.0000000000
     45600      7100  TIP3      H2            -31.0111020635        0.3916322053      -40.1905166045  TIP3      6900            0.0000000000
     45601      7101  TIP3      OH2           -24.9663891322       15.1935024548      -42.4621943964  TIP3      6901            0.0000000000
     45602      7101  TIP3      H1            -24.8330464255       14.3668999439      -42.9698604595  TIP3      6901            0.0000000000
     45603      7101  TIP3      H2            -24.1095764081       15.6416116420      -42.6774619462  TIP3      6901            0.0000000000
     45604      7102  TIP3      OH2           -23.9849426636       13.0307538504      -43.9464138027  TIP3      6902            0.0000000000
     45605      7102  TIP3      H1            -24.0277224221       12.3433179934      -44.6386559995  TIP3      6902            0.0000000000
     45606      7102  TIP3      H2            -24.1550747075       12.4837464223      -43.1619904133  TIP3      6902            0.0000000000
     45607      7103  TIP3      OH2           -22.3270056081       11.7053117567      -35.2747433874  TIP3      6903            0.0000000000
     45608      7103  TIP3      H1            -22.0763132131       10.9810276825      -35.8923538914  TIP3      6903            0.0000000000
     45609      7103  TIP3      H2            -22.3031975524       12.4577159883      -35.8913493254  TIP3      6903            0.0000000000
     45610      7104  TIP3      OH2           -27.5539242130        8.8681929256      -45.6346378798  TIP3      6904            0.0000000000
     45611      7104  TIP3      H1            -27.9919101409        9.7282754930      -45.8051692193  TIP3      6904            0.0000000000
     45612      7104  TIP3      H2            -26.7472405976        8.9033664878      -46.1952359935  TIP3      6904            0.0000000000
     45613      7105  TIP3      OH2           -27.3149916141        7.3351170792      -48.5904550353  TIP3      6905            0.0000000000
     45614      7105  TIP3      H1            -26.5998059397        7.7635118581      -48.0610960932  TIP3      6905            0.0000000000
     45615      7105  TIP3      H2            -26.8883515912        6.4612480433      -48.7340332564  TIP3      6905            0.0000000000
     45616      7106  TIP3      OH2           -20.1597096912        8.2293473992      -37.4701298590  TIP3      6906            0.0000000000
     45617      7106  TIP3      H1            -20.8603734107        8.9061432386      -37.4742147762  TIP3      6906            0.0000000000
     45618      7106  TIP3      H2            -19.5941920911        8.5831858349      -38.1863843708  TIP3      6906            0.0000000000
     45619      7107  TIP3      OH2           -24.0199760205        8.5631767393      -44.6615353659  TIP3      6907            0.0000000000
     45620      7107  TIP3      H1            -24.7446294225        8.9015557408      -44.0816688095  TIP3      6907            0.0000000000
     45621      7107  TIP3      H2            -23.3864304499        8.2182221157      -43.9909716660  TIP3      6907            0.0000000000
     45622      7108  TIP3      OH2           -23.9845825913        7.2206151011      -35.7282483897  TIP3      6908            0.0000000000
     45623      7108  TIP3      H1            -24.3471121427        8.0295465746      -35.3372509958  TIP3      6908            0.0000000000
     45624      7108  TIP3      H2            -24.6486977110        7.0625266576      -36.4203747125  TIP3      6908            0.0000000000
     45625      7109  TIP3      OH2           -32.3683394137        9.1879175040      -43.0835927925  TIP3      6909            0.0000000000
     45626      7109  TIP3      H1            -32.1729222807        9.2079993101      -44.0255671512  TIP3      6909            0.0000000000
     45627      7109  TIP3      H2            -31.6641948985        8.6069023039      -42.6948169990  TIP3      6909            0.0000000000
     45628      7110  TIP3      OH2           -31.4118131252       12.4841500889      -40.2727576829  TIP3      6910            0.0000000000
     45629      7110  TIP3      H1            -31.1937659284       12.6256190818      -41.2099887771  TIP3      6910            0.0000000000
     45630      7110  TIP3      H2            -30.5755991512       12.1696358096      -39.8773397310  TIP3      6910            0.0000000000
     45631      7111  TIP3      OH2           -32.1889860748        8.0803189389      -39.1561876212  TIP3      6911            0.0000000000
     45632      7111  TIP3      H1            -31.6811788731        8.1201917915      -39.9963758034  TIP3      6911            0.0000000000
     45633      7111  TIP3      H2            -31.8077237690        8.8021361267      -38.6109470959  TIP3      6911            0.0000000000
     45634      7112  TIP3      OH2           -25.8462076229       13.9051502952      -38.5277387907  TIP3      6912            0.0000000000
     45635      7112  TIP3      H1            -25.9182992178       14.5581320414      -37.8120288027  TIP3      6912            0.0000000000
     45636      7112  TIP3      H2            -26.2686090202       13.1305737774      -38.1087224066  TIP3      6912            0.0000000000
     45637      7113  TIP3      OH2           -31.3546603922       12.7370986541      -34.6272710733  TIP3      6913            0.0000000000
     45638      7113  TIP3      H1            -32.1370097444       13.0696536296      -34.1380081032  TIP3      6913            0.0000000000
     45639      7113  TIP3      H2            -31.7494114294       12.5531450922      -35.5008419187  TIP3      6913            0.0000000000
     45640      7114  TIP3      OH2           -25.3168065463        8.2209303525      -46.9705192373  TIP3      6914            0.0000000000
     45641      7114  TIP3      H1            -24.7854535457        8.3123411230      -46.1334459439  TIP3      6914            0.0000000000
     45642      7114  TIP3      H2            -24.7356734309        8.6844548261      -47.6229900003  TIP3      6914            0.0000000000
     45643      7115  TIP3      OH2           -33.9617172813        8.8693539381      -35.6857531563  TIP3      6915            0.0000000000
     45644      7115  TIP3      H1            -33.9991942838        9.6128755556      -35.0454138774  TIP3      6915            0.0000000000
     45645      7115  TIP3      H2            -34.8169948409        8.4570495114      -35.4697998148  TIP3      6915            0.0000000000
     45646      7116  TIP3      OH2           -27.6757685155       14.6848316754      -44.1938080745  TIP3      6916            0.0000000000
     45647      7116  TIP3      H1            -27.3347994275       15.1429987708      -43.4155137586  TIP3      6916            0.0000000000
     45648      7116  TIP3      H2            -28.0713277448       15.3920491505      -44.7249516107  TIP3      6916            0.0000000000
     45649      7117  TIP3      OH2           -33.2361571264       14.3699833140      -33.5915843044  TIP3      6917            0.0000000000
     45650      7117  TIP3      H1            -33.3235975010       14.7252665242      -34.5008467884  TIP3      6917            0.0000000000
     45651      7117  TIP3      H2            -34.1635458386       14.2761222185      -33.3123854599  TIP3      6917            0.0000000000
     45652      7118  TIP3      OH2           -21.3922736356       -0.4167639348      -46.8990149349  TIP3      6918            0.0000000000
     45653      7118  TIP3      H1            -22.3398631232       -0.4148833240      -46.6064405141  TIP3      6918            0.0000000000
     45654      7118  TIP3      H2            -21.2687167044        0.5277050643      -47.0671653962  TIP3      6918            0.0000000000
     45655      7119  TIP3      OH2           -34.2606779274        8.2278343469      -44.8915900995  TIP3      6919            0.0000000000
     45656      7119  TIP3      H1            -34.2631973880        8.8935759936      -45.6207176776  TIP3      6919            0.0000000000
     45657      7119  TIP3      H2            -34.1944136585        7.3831439969      -45.3642987075  TIP3      6919            0.0000000000
     45658      7120  TIP3      OH2           -20.5522821689       14.3283357215      -48.7029290706  TIP3      6920            0.0000000000
     45659      7120  TIP3      H1            -20.2715200959       15.2651057212      -48.5656172377  TIP3      6920            0.0000000000
     45660      7120  TIP3      H2            -19.7356187131       13.8315931980      -48.5028688216  TIP3      6920            0.0000000000
     45661      7121  TIP3      OH2           -36.7410676660       10.6690313690      -36.2254401989  TIP3      6921            0.0000000000
     45662      7121  TIP3      H1            -37.7108074220       10.6936092880      -36.3622995011  TIP3      6921            0.0000000000
     45663      7121  TIP3      H2            -36.5529455650        9.7209866018      -36.3424579214  TIP3      6921            0.0000000000
     45664      7122  TIP3      OH2           -37.1753503542       14.1494270270      -39.9445772202  TIP3      6922            0.0000000000
     45665      7122  TIP3      H1            -36.3796519368       13.5803640885      -39.9137368654  TIP3      6922            0.0000000000
     45666      7122  TIP3      H2            -37.1037584609       14.5706280016      -39.0632056187  TIP3      6922            0.0000000000
     45667      7123  TIP3      OH2           -19.5212972314       14.2677139710      -33.7233432571  TIP3      6923            0.0000000000
     45668      7123  TIP3      H1            -19.6998529905       13.3566646537      -33.9870957246  TIP3      6923            0.0000000000
     45669      7123  TIP3      H2            -20.4096850613       14.4947654399      -33.3608011584  TIP3      6923            0.0000000000
     45670      7124  TIP3      OH2           -28.8538920450       13.7358434567      -34.8287745645  TIP3      6924            0.0000000000
     45671      7124  TIP3      H1            -28.6979832322       14.4846855123      -34.2221948351  TIP3      6924            0.0000000000
     45672      7124  TIP3      H2            -29.8185582876       13.5279072490      -34.7314264024  TIP3      6924            0.0000000000
     45673      7125  TIP3      OH2           -28.3363605599       17.3553220653      -45.4354540555  TIP3      6925            0.0000000000
     45674      7125  TIP3      H1            -28.0829211800       17.6555134453      -46.3235642256  TIP3      6925            0.0000000000
     45675      7125  TIP3      H2            -28.2287497835       18.1962889980      -44.9309185614  TIP3      6925            0.0000000000
     45676      7126  TIP3      OH2           -34.3216640078       16.0882428364      -43.2836166556  TIP3      6926            0.0000000000
     45677      7126  TIP3      H1            -34.1789526484       15.9095281639      -42.3297532606  TIP3      6926            0.0000000000
     45678      7126  TIP3      H2            -35.2916672348       16.0097455560      -43.3411962242  TIP3      6926            0.0000000000
     45679      7127  TIP3      OH2           -25.3744538078       17.3506012270      -47.8970884925  TIP3      6927            0.0000000000
     45680      7127  TIP3      H1            -24.8544979384       16.5807350208      -48.2252343401  TIP3      6927            0.0000000000
     45681      7127  TIP3      H2            -25.1438748215       17.3329178581      -46.9519334913  TIP3      6927            0.0000000000
     45682      7128  TIP3      OH2           -25.5776200465       16.7159742551      -45.1480941034  TIP3      6928            0.0000000000
     45683      7128  TIP3      H1            -26.5459087502       16.6601309765      -45.1042055166  TIP3      6928            0.0000000000
     45684      7128  TIP3      H2            -25.3178118817       15.8465539865      -44.7948842389  TIP3      6928            0.0000000000
     45685      7129  TIP3      OH2           -22.7766346180        5.6487042913      -33.3738124365  TIP3      6929            0.0000000000
     45686      7129  TIP3      H1            -23.3217261485        6.0773073781      -34.0691988178  TIP3      6929            0.0000000000
     45687      7129  TIP3      H2            -22.7256624834        4.7388916008      -33.7302425983  TIP3      6929            0.0000000000
     45688      7130  TIP3      OH2           -35.0688906208       12.5201816117      -35.4433485584  TIP3      6930            0.0000000000
     45689      7130  TIP3      H1            -34.9118553822       11.9605804760      -34.6521196090  TIP3      6930            0.0000000000
     45690      7130  TIP3      H2            -35.8123555241       12.0021642841      -35.8356565350  TIP3      6930            0.0000000000
     45691      7131  TIP3      OH2           -32.4655849272        0.9652684429      -39.5877729947  TIP3      6931            0.0000000000
     45692      7131  TIP3      H1            -33.3902355492        0.9785627135      -39.9108361545  TIP3      6931            0.0000000000
     45693      7131  TIP3      H2            -32.5903050320        1.4325536001      -38.7422465803  TIP3      6931            0.0000000000
     45694      7132  TIP3      OH2           -27.6311492540        0.2768907024      -36.3800732694  TIP3      6932            0.0000000000
     45695      7132  TIP3      H1            -27.3321708563       -0.3430621664      -35.6850162791  TIP3      6932            0.0000000000
     45696      7132  TIP3      H2            -28.6155334132        0.2848499661      -36.2640294630  TIP3      6932            0.0000000000
     45697      7133  TIP3      OH2           -25.2172654888        4.4173864631      -34.9905501389  TIP3      6933            0.0000000000
     45698      7133  TIP3      H1            -25.6950924483        3.9501421317      -34.2567505618  TIP3      6933            0.0000000000
     45699      7133  TIP3      H2            -25.7934232934        5.1837574107      -35.1229558845  TIP3      6933            0.0000000000
     45700      7134  TIP3      OH2           -23.6612780393        9.3623729715      -48.6116949056  TIP3      6934            0.0000000000
     45701      7134  TIP3      H1            -24.0639739309        9.3902239965      -49.5209445081  TIP3      6934            0.0000000000
     45702      7134  TIP3      H2            -22.7400960082        9.5803265343      -48.8789813538  TIP3      6934            0.0000000000
     45703      7135  TIP3      OH2           -28.2129658470        3.0832457372      -48.5406323456  TIP3      6935            0.0000000000
     45704      7135  TIP3      H1            -28.7489764619        2.7654301450      -47.7762503015  TIP3      6935            0.0000000000
     45705      7135  TIP3      H2            -28.6813868857        2.6719344871      -49.2749725582  TIP3      6935            0.0000000000
     45706      7136  TIP3      OH2           -32.5260423013        5.5950272325      -38.2758276153  TIP3      6936            0.0000000000
     45707      7136  TIP3      H1            -33.2453601873        5.6748303272      -37.6216573326  TIP3      6936            0.0000000000
     45708      7136  TIP3      H2            -32.3498082786        6.5457008196      -38.4943356365  TIP3      6936            0.0000000000
     45709      7137  TIP3      OH2           -32.5728866665        5.7236249362      -43.0037753714  TIP3      6937            0.0000000000
     45710      7137  TIP3      H1            -33.4507200393        5.3688742485      -43.3041637595  TIP3      6937            0.0000000000
     45711      7137  TIP3      H2            -32.1485807606        5.8213684471      -43.8848999195  TIP3      6937            0.0000000000
     45712      7138  TIP3      OH2           -26.8197047928        6.6066807504      -44.3299610803  TIP3      6938            0.0000000000
     45713      7138  TIP3      H1            -27.1841321125        7.4059932125      -44.7787437280  TIP3      6938            0.0000000000
     45714      7138  TIP3      H2            -26.2610180745        6.2521301095      -45.0411192294  TIP3      6938            0.0000000000
     45715      7139  TIP3      OH2           -28.1133642610        6.6381597886      -33.2717306539  TIP3      6939            0.0000000000
     45716      7139  TIP3      H1            -28.5835588960        5.8431825414      -32.9501452223  TIP3      6939            0.0000000000
     45717      7139  TIP3      H2            -27.3542036042        6.6530948712      -32.6660319833  TIP3      6939            0.0000000000
     45718      7140  TIP3      OH2           -25.9764123591        5.8870946025      -41.6735623679  TIP3      6940            0.0000000000
     45719      7140  TIP3      H1            -26.0470417483        6.7476211153      -42.1324146696  TIP3      6940            0.0000000000
     45720      7140  TIP3      H2            -26.0094069560        5.3025891135      -42.4472840651  TIP3      6940            0.0000000000
     45721      7141  TIP3      OH2           -34.9242558436        5.6046055611      -36.8486785722  TIP3      6941            0.0000000000
     45722      7141  TIP3      H1            -34.6897908769        6.0067457805      -36.0028328111  TIP3      6941            0.0000000000
     45723      7141  TIP3      H2            -35.3151502586        4.7494823777      -36.5560928845  TIP3      6941            0.0000000000
     45724      7142  TIP3      OH2           -31.4716995880        3.0702035150      -49.7231363989  TIP3      6942            0.0000000000
     45725      7142  TIP3      H1            -31.7541558906        2.8653159421      -48.8171475430  TIP3      6942            0.0000000000
     45726      7142  TIP3      H2            -32.1006104936        3.7553729922      -49.9704550632  TIP3      6942            0.0000000000
     45727      7143  TIP3      OH2           -37.2049016835        3.7105531528      -42.4229756490  TIP3      6943            0.0000000000
     45728      7143  TIP3      H1            -36.8505477009        3.1193425210      -41.7343522263  TIP3      6943            0.0000000000
     45729      7143  TIP3      H2            -37.3711560533        3.1152146947      -43.1707724617  TIP3      6943            0.0000000000
     45730      7144  TIP3      OH2           -37.2619017808        3.6928436873      -47.2924227994  TIP3      6944            0.0000000000
     45731      7144  TIP3      H1            -36.5461454931        4.1994590716      -47.7041179283  TIP3      6944            0.0000000000
     45732      7144  TIP3      H2            -37.9317088120        4.3907668718      -47.1914174786  TIP3      6944            0.0000000000
     45733      7145  TIP3      OH2           -26.8704849919        7.1773346484      -37.2933055341  TIP3      6945            0.0000000000
     45734      7145  TIP3      H1            -26.2425033966        6.5182655423      -37.6581271700  TIP3      6945            0.0000000000
     45735      7145  TIP3      H2            -27.4711842965        6.6023470157      -36.7634195483  TIP3      6945            0.0000000000
     45736      7146  TIP3      OH2           -29.7283509508        3.4435473936      -42.1697803921  TIP3      6946            0.0000000000
     45737      7146  TIP3      H1            -30.6773893779        3.4460489442      -41.9309620250  TIP3      6946            0.0000000000
     45738      7146  TIP3      H2            -29.3337317090        2.9045093635      -41.4583221216  TIP3      6946            0.0000000000
     45739      7147  TIP3      OH2           -34.9200029298        4.8848951554      -43.7703090390  TIP3      6947            0.0000000000
     45740      7147  TIP3      H1            -35.7116772941        5.0873443443      -44.3318885610  TIP3      6947            0.0000000000
     45741      7147  TIP3      H2            -34.9245706200        3.8975172946      -43.7633180910  TIP3      6947            0.0000000000
     45742      7148  TIP3      OH2           -31.6955283231        5.3127608330      -45.6324460007  TIP3      6948            0.0000000000
     45743      7148  TIP3      H1            -30.7373890638        5.1400183405      -45.6258553706  TIP3      6948            0.0000000000
     45744      7148  TIP3      H2            -31.8518483880        5.5788975251      -46.5651199887  TIP3      6948            0.0000000000
     45745      7149  TIP3      OH2           -25.6831268066        2.7330373437      -39.0926379026  TIP3      6949            0.0000000000
     45746      7149  TIP3      H1            -26.2938173399        2.5839006015      -38.3421343982  TIP3      6949            0.0000000000
     45747      7149  TIP3      H2            -25.9997465169        2.0870356601      -39.7363214423  TIP3      6949            0.0000000000
     45748      7150  TIP3      OH2           -32.0902878750        5.8385232737      -48.3658751965  TIP3      6950            0.0000000000
     45749      7150  TIP3      H1            -33.0365918733        5.9041376583      -48.5799786401  TIP3      6950            0.0000000000
     45750      7150  TIP3      H2            -31.6588265796        6.5109324091      -48.9324298263  TIP3      6950            0.0000000000
     45751      7151  TIP3      OH2           -22.5217395845       18.2747037940      -32.6551543322  TIP3      6951            0.0000000000
     45752      7151  TIP3      H1            -22.1696874162       18.5377841288      -33.5269182260  TIP3      6951            0.0000000000
     45753      7151  TIP3      H2            -21.7583862485       18.5220826790      -32.1053342019  TIP3      6951            0.0000000000
     45754      7152  TIP3      OH2           -34.1015285329       10.7599789616      -33.7275525249  TIP3      6952            0.0000000000
     45755      7152  TIP3      H1            -33.4059954116       10.8805322567      -33.0577864924  TIP3      6952            0.0000000000
     45756      7152  TIP3      H2            -34.8861270398       10.6332599896      -33.1652721042  TIP3      6952            0.0000000000
     45757      7153  TIP3      OH2           -28.8594389864        6.1916058002      -40.4792039687  TIP3      6953            0.0000000000
     45758      7153  TIP3      H1            -28.0639150027        5.9193163274      -40.9601964987  TIP3      6953            0.0000000000
     45759      7153  TIP3      H2            -29.1525953796        5.3553475977      -40.0993137652  TIP3      6953            0.0000000000
     45760      7154  TIP3      OH2           -34.3000807074        2.3277848275      -43.8089322248  TIP3      6954            0.0000000000
     45761      7154  TIP3      H1            -34.8190339709        1.5889639448      -43.4161601657  TIP3      6954            0.0000000000
     45762      7154  TIP3      H2            -34.1983441971        2.0257229974      -44.7276952354  TIP3      6954            0.0000000000
     45763      7155  TIP3      OH2           -30.2059446953        4.2613585698      -38.0763147008  TIP3      6955            0.0000000000
     45764      7155  TIP3      H1            -31.0110931505        4.8178654445      -38.1430761589  TIP3      6955            0.0000000000
     45765      7155  TIP3      H2            -29.5636004561        4.8799824710      -37.6961473532  TIP3      6955            0.0000000000
     45766      7156  TIP3      OH2           -29.4143388218       10.8361000668      -46.1887560930  TIP3      6956            0.0000000000
     45767      7156  TIP3      H1            -30.1695704565       10.3066630642      -46.4932828025  TIP3      6956            0.0000000000
     45768      7156  TIP3      H2            -29.7537562053       11.0745775835      -45.2949269836  TIP3      6956            0.0000000000
     45769      7157  TIP3      OH2           -21.9930883866       10.2970340452      -37.4726512718  TIP3      6957            0.0000000000
     45770      7157  TIP3      H1            -21.5280863935       10.8586496282      -38.1462712804  TIP3      6957            0.0000000000
     45771      7157  TIP3      H2            -22.8348715212       10.1330891198      -37.9210412293  TIP3      6957            0.0000000000
     45772      7158  TIP3      OH2           -25.6916857922        3.5003107691      -48.0268383785  TIP3      6958            0.0000000000
     45773      7158  TIP3      H1            -26.6724480526        3.5379538503      -48.1434377694  TIP3      6958            0.0000000000
     45774      7158  TIP3      H2            -25.4784819978        4.3859534323      -47.6639841322  TIP3      6958            0.0000000000
     45775      7159  TIP3      OH2           -28.4982440201       11.0179953585      -35.0360420673  TIP3      6959            0.0000000000
     45776      7159  TIP3      H1            -28.9521026783       10.7279789293      -34.2308986824  TIP3      6959            0.0000000000
     45777      7159  TIP3      H2            -28.5600629008       11.9870445764      -34.9291270015  TIP3      6959            0.0000000000
     45778      7160  TIP3      OH2           -24.9558641546        5.6159713341      -46.5941102976  TIP3      6960            0.0000000000
     45779      7160  TIP3      H1            -24.1628131312        5.4353022234      -46.0458014139  TIP3      6960            0.0000000000
     45780      7160  TIP3      H2            -24.8089118410        6.5387127870      -46.8776456173  TIP3      6960            0.0000000000
     45781      7161  TIP3      OH2           -34.0875183372       10.0174176501      -40.7715208870  TIP3      6961            0.0000000000
     45782      7161  TIP3      H1            -33.3114437109       10.5780177987      -40.9119648367  TIP3      6961            0.0000000000
     45783      7161  TIP3      H2            -33.8496108804        9.5419929162      -39.9507058086  TIP3      6961            0.0000000000
     45784      7162  TIP3      OH2           -27.1367835216       12.2899219868      -47.0993413750  TIP3      6962            0.0000000000
     45785      7162  TIP3      H1            -27.5379801342       13.1895684247      -47.0652899688  TIP3      6962            0.0000000000
     45786      7162  TIP3      H2            -27.9267579235       11.7333155035      -46.9473685691  TIP3      6962            0.0000000000
     45787      7163  TIP3      OH2           -36.5926703397        7.8087947491      -35.7275978526  TIP3      6963            0.0000000000
     45788      7163  TIP3      H1            -36.6144556932        7.5309175219      -34.7937377215  TIP3      6963            0.0000000000
     45789      7163  TIP3      H2            -37.5654224026        7.8844674758      -35.8641235901  TIP3      6963            0.0000000000
     45790      7164  TIP3      OH2           -30.5062140055        8.1732850265      -33.4129899932  TIP3      6964            0.0000000000
     45791      7164  TIP3      H1            -31.0562451765        7.5711199194      -33.9464856928  TIP3      6964            0.0000000000
     45792      7164  TIP3      H2            -29.6643687810        7.6814739467      -33.3065053338  TIP3      6964            0.0000000000
     45793      7165  TIP3      OH2           -25.4684574234       13.3426147149      -34.7538737439  TIP3      6965            0.0000000000
     45794      7165  TIP3      H1            -26.2803079733       13.5079366628      -35.2551640727  TIP3      6965            0.0000000000
     45795      7165  TIP3      H2            -25.7212221291       13.7742411564      -33.9077442123  TIP3      6965            0.0000000000
     45796      7166  TIP3      OH2           -20.0360537841        5.4211425608      -46.4530952749  TIP3      6966            0.0000000000
     45797      7166  TIP3      H1            -20.7471843700        5.2756358569      -47.1123510264  TIP3      6966            0.0000000000
     45798      7166  TIP3      H2            -19.8926339481        6.3757108790      -46.6176863198  TIP3      6966            0.0000000000
     45799      7167  TIP3      OH2           -19.8519125829       11.4172227745      -34.0985806668  TIP3      6967            0.0000000000
     45800      7167  TIP3      H1            -20.7827386802       11.5018262797      -34.4203869946  TIP3      6967            0.0000000000
     45801      7167  TIP3      H2            -19.3390087677       11.4137931827      -34.9381690867  TIP3      6967            0.0000000000
     45802      7168  TIP3      OH2           -21.4111528210       13.9781336853      -46.1885229016  TIP3      6968            0.0000000000
     45803      7168  TIP3      H1            -22.2685948237       13.5410825575      -46.1185553229  TIP3      6968            0.0000000000
     45804      7168  TIP3      H2            -21.3082047477       14.0696927684      -47.1600759733  TIP3      6968            0.0000000000
     45805      7169  TIP3      OH2           -24.6149489220        9.1986136053      -39.3965173472  TIP3      6969            0.0000000000
     45806      7169  TIP3      H1            -25.5403925162        8.9342144725      -39.5646694500  TIP3      6969            0.0000000000
     45807      7169  TIP3      H2            -24.1400966502        8.5094641175      -39.9036128085  TIP3      6969            0.0000000000
     45808      7170  TIP3      OH2           -32.2093855437       13.4170249124      -42.8163165030  TIP3      6970            0.0000000000
     45809      7170  TIP3      H1            -31.8478698653       14.3056839887      -43.0206831486  TIP3      6970            0.0000000000
     45810      7170  TIP3      H2            -33.1086523308       13.4953642564      -43.1693171380  TIP3      6970            0.0000000000
     45811      7171  TIP3      OH2           -35.9841866413        8.2518990314      -48.6209112089  TIP3      6971            0.0000000000
     45812      7171  TIP3      H1            -35.4789497384        8.9971493677      -48.2602319125  TIP3      6971            0.0000000000
     45813      7171  TIP3      H2            -36.8463667371        8.3489985800      -48.1782046037  TIP3      6971            0.0000000000
     45814      7172  TIP3      OH2           -30.6514582369       11.2503960114      -43.7253527895  TIP3      6972            0.0000000000
     45815      7172  TIP3      H1            -31.1378369084       12.0947983340      -43.6367177892  TIP3      6972            0.0000000000
     45816      7172  TIP3      H2            -30.9290153928       10.7624472645      -42.9375161737  TIP3      6972            0.0000000000
     45817      7173  TIP3      OH2           -29.9744698591       15.1775598759      -37.0083348577  TIP3      6973            0.0000000000
     45818      7173  TIP3      H1            -29.4423199303       15.9340459880      -37.3357260566  TIP3      6973            0.0000000000
     45819      7173  TIP3      H2            -29.3713100971       14.7888353390      -36.3419948609  TIP3      6973            0.0000000000
     45820      7174  TIP3      OH2           -31.6880994166       15.9210878458      -43.9948528091  TIP3      6974            0.0000000000
     45821      7174  TIP3      H1            -32.6379273204       16.0993898558      -43.8293656750  TIP3      6974            0.0000000000
     45822      7174  TIP3      H2            -31.3107313632       16.8018453804      -43.7627810148  TIP3      6974            0.0000000000
     45823      7175  TIP3      OH2           -26.9303418487       11.4180428079      -37.5337145778  TIP3      6975            0.0000000000
     45824      7175  TIP3      H1            -27.4066336980       11.0513111758      -36.7566485505  TIP3      6975            0.0000000000
     45825      7175  TIP3      H2            -26.4209120636       10.6418947022      -37.8049540925  TIP3      6975            0.0000000000
     45826      7176  TIP3      OH2           -24.1608926797       12.4107026122      -48.6276131800  TIP3      6976            0.0000000000
     45827      7176  TIP3      H1            -24.0416202711       11.9293579314      -47.7795808124  TIP3      6976            0.0000000000
     45828      7176  TIP3      H2            -25.1298333048       12.3346336441      -48.6460296907  TIP3      6976            0.0000000000
     45829      7177  TIP3      OH2           -23.6667319520       15.8018373041      -35.2109967562  TIP3      6977            0.0000000000
     45830      7177  TIP3      H1            -24.5693436825       15.4276872231      -35.1768880188  TIP3      6977            0.0000000000
     45831      7177  TIP3      H2            -23.6906317557       16.3857095242      -36.0048658740  TIP3      6977            0.0000000000
     45832      7178  TIP3      OH2           -19.8058514619       16.9064784725      -48.1987878878  TIP3      6978            0.0000000000
     45833      7178  TIP3      H1            -19.0508958456       17.5008808202      -48.3790530470  TIP3      6978            0.0000000000
     45834      7178  TIP3      H2            -20.3892013530       17.5220703513      -47.6883884559  TIP3      6978            0.0000000000
     45835      7179  TIP3      OH2           -35.6819655917        3.3328128753      -35.7922044549  TIP3      6979            0.0000000000
     45836      7179  TIP3      H1            -35.9942272995        3.6520909174      -34.9227728207  TIP3      6979            0.0000000000
     45837      7179  TIP3      H2            -35.9356147028        2.3995881321      -35.7392650752  TIP3      6979            0.0000000000
     45838      7180  TIP3      OH2           -23.4384471971       11.1218343545      -46.3679494256  TIP3      6980            0.0000000000
     45839      7180  TIP3      H1            -23.5318648724       10.1581811020      -46.3717053824  TIP3      6980            0.0000000000
     45840      7180  TIP3      H2            -22.4640144883       11.1869457873      -46.3922227633  TIP3      6980            0.0000000000
     45841      7181  TIP3      OH2           -36.0887166697       14.9954045770      -37.5117156985  TIP3      6981            0.0000000000
     45842      7181  TIP3      H1            -35.3152525327       14.4536521815      -37.2944802466  TIP3      6981            0.0000000000
     45843      7181  TIP3      H2            -36.3308766670       15.3384277320      -36.6399883963  TIP3      6981            0.0000000000
     45844      7182  TIP3      OH2           -31.6671239482       12.9268050451      -47.6424507697  TIP3      6982            0.0000000000
     45845      7182  TIP3      H1            -30.8012704087       12.6037582473      -47.3600904876  TIP3      6982            0.0000000000
     45846      7182  TIP3      H2            -31.5825157607       13.8772104144      -47.3911732937  TIP3      6982            0.0000000000
     45847      7183  TIP3      OH2           -34.8298849342       10.3032429518      -46.8853582708  TIP3      6983            0.0000000000
     45848      7183  TIP3      H1            -35.6783448485       10.7320270402      -46.6136598404  TIP3      6983            0.0000000000
     45849      7183  TIP3      H2            -34.3959295809       11.0385319671      -47.3595737468  TIP3      6983            0.0000000000
     45850      7184  TIP3      OH2           -26.9761728636        2.8527100708      -36.6115207360  TIP3      6984            0.0000000000
     45851      7184  TIP3      H1            -26.1394618183        3.0818246647      -36.1927433278  TIP3      6984            0.0000000000
     45852      7184  TIP3      H2            -27.1523772351        1.9307121833      -36.3114760779  TIP3      6984            0.0000000000
     45853      7185  TIP3      OH2           -26.0463510395        2.2708323863      -45.5073495299  TIP3      6985            0.0000000000
     45854      7185  TIP3      H1            -25.7759626091        2.8400798667      -46.2591852947  TIP3      6985            0.0000000000
     45855      7185  TIP3      H2            -25.5914831543        2.6953312903      -44.7410901594  TIP3      6985            0.0000000000
     45856      7186  TIP3      OH2           -28.5253936142       14.6961562475      -47.2607856431  TIP3      6986            0.0000000000
     45857      7186  TIP3      H1            -29.3765929916       14.9734664837      -46.8681130491  TIP3      6986            0.0000000000
     45858      7186  TIP3      H2            -28.0899693771       15.5657165926      -47.3694747598  TIP3      6986            0.0000000000
     45859      7187  TIP3      OH2           -28.8579777660        4.2197800988      -44.5711055804  TIP3      6987            0.0000000000
     45860      7187  TIP3      H1            -28.2442437031        4.9627547047      -44.4512444051  TIP3      6987            0.0000000000
     45861      7187  TIP3      H2            -29.2003526071        4.0495362342      -43.6632030964  TIP3      6987            0.0000000000
     45862      7188  TIP3      OH2           -27.9751599284        5.3580981606      -35.7510825422  TIP3      6988            0.0000000000
     45863      7188  TIP3      H1            -27.8391832486        5.5904651107      -34.8168324961  TIP3      6988            0.0000000000
     45864      7188  TIP3      H2            -27.7677969633        4.3999777282      -35.8066125069  TIP3      6988            0.0000000000
     45865      7189  TIP3      OH2           -28.1958754815        1.1191193691      -44.2238201723  TIP3      6989            0.0000000000
     45866      7189  TIP3      H1            -28.5844612533        1.9057564914      -43.8028457091  TIP3      6989            0.0000000000
     45867      7189  TIP3      H2            -27.4013233385        1.5398132082      -44.6464720924  TIP3      6989            0.0000000000
     45868      7190  TIP3      OH2           -31.2080240483       15.4748468301      -46.8390932293  TIP3      6990            0.0000000000
     45869      7190  TIP3      H1            -31.0763628049       16.3774395341      -47.2137992707  TIP3      6990            0.0000000000
     45870      7190  TIP3      H2            -31.3531348548       15.6957968276      -45.8954853785  TIP3      6990            0.0000000000
     45871      7191  TIP3      OH2           -32.5637993962        2.4338719072      -46.9098508162  TIP3      6991            0.0000000000
     45872      7191  TIP3      H1            -32.5974912818        3.2833520540      -46.4464568430  TIP3      6991            0.0000000000
     45873      7191  TIP3      H2            -31.6549139574        2.1148585674      -46.7306783201  TIP3      6991            0.0000000000
     45874      7192  TIP3      OH2           -22.5584756137        3.3851168919      -34.7983212354  TIP3      6992            0.0000000000
     45875      7192  TIP3      H1            -23.5125116210        3.5266241174      -34.9814580486  TIP3      6992            0.0000000000
     45876      7192  TIP3      H2            -22.2003765415        3.2997612383      -35.7001154959  TIP3      6992            0.0000000000
     45877      7193  TIP3      OH2           -23.5789576861        6.8293066488      -40.8233562375  TIP3      6993            0.0000000000
     45878      7193  TIP3      H1            -24.3259396149        6.2123709570      -40.9037504676  TIP3      6993            0.0000000000
     45879      7193  TIP3      H2            -22.9419480429        6.3156952309      -40.2858884114  TIP3      6993            0.0000000000
     45880      7194  TIP3      OH2           -34.2505066267       12.7210806840      -48.3947516948  TIP3      6994            0.0000000000
     45881      7194  TIP3      H1            -33.4669381223       12.9935102401      -47.8934445045  TIP3      6994            0.0000000000
     45882      7194  TIP3      H2            -33.8076845590       12.1387261572      -49.0256323987  TIP3      6994            0.0000000000
     45883      7195  TIP3      OH2           -35.0849592612        5.5342991206      -48.4328960677  TIP3      6995            0.0000000000
     45884      7195  TIP3      H1            -35.2552575599        6.4431612759      -48.1315959904  TIP3      6995            0.0000000000
     45885      7195  TIP3      H2            -35.8179552549        5.4870971604      -49.0885617385  TIP3      6995            0.0000000000
     45886      7196  TIP3      OH2           -22.6111689319       16.1814060600      -39.2064427809  TIP3      6996            0.0000000000
     45887      7196  TIP3      H1            -22.5173135180       16.8238454728      -39.9374514672  TIP3      6996            0.0000000000
     45888      7196  TIP3      H2            -21.6562111077       16.0881421249      -39.0052531137  TIP3      6996            0.0000000000
     45889      7197  TIP3      OH2           -35.0361701550        0.4891443718      -40.2800879525  TIP3      6997            0.0000000000
     45890      7197  TIP3      H1            -35.0528254209        0.1544475954      -41.2035796575  TIP3      6997            0.0000000000
     45891      7197  TIP3      H2            -35.3175062521       -0.3477336692      -39.8312857037  TIP3      6997            0.0000000000
     45892      7198  TIP3      OH2           -36.2298782026       13.8518151316      -44.4851219910  TIP3      6998            0.0000000000
     45893      7198  TIP3      H1            -37.0712438286       14.3214284012      -44.3997674395  TIP3      6998            0.0000000000
     45894      7198  TIP3      H2            -35.6933179370       14.4675502375      -44.9982699418  TIP3      6998            0.0000000000
     45895      7199  TIP3      OH2           -36.7386947091       17.0117840905      -32.9918799841  TIP3      6999            0.0000000000
     45896      7199  TIP3      H1            -36.0971371135       17.0082576516      -32.2572172650  TIP3      6999            0.0000000000
     45897      7199  TIP3      H2            -37.1219733820       16.1422235583      -32.8230652345  TIP3      6999            0.0000000000
     45898      7200  TIP3      OH2           -32.1947472530       16.0991956846      -31.5214096747  TIP3      7000            0.0000000000
     45899      7200  TIP3      H1            -31.4653318110       15.5872609055      -31.1323143787  TIP3      7000            0.0000000000
     45900      7200  TIP3      H2            -32.3898453309       15.6211746651      -32.3391845564  TIP3      7000            0.0000000000
     45901      7201  TIP3      OH2           -28.2410123683       15.0934214116      -50.1358658713  TIP3      7001            0.0000000000
     45902      7201  TIP3      H1            -28.8090375561       14.5512587111      -49.5714857595  TIP3      7001            0.0000000000
     45903      7201  TIP3      H2            -27.3788635841       14.8454012092      -49.7729319914  TIP3      7001            0.0000000000
     45904      7202  TIP3      OH2           -26.0460255336       14.5263537923      -32.4621761227  TIP3      7002            0.0000000000
     45905      7202  TIP3      H1            -26.3579980764       13.6447705008      -32.1201850247  TIP3      7002            0.0000000000
     45906      7202  TIP3      H2            -25.1574165774       14.5651849458      -32.0409523286  TIP3      7002            0.0000000000
     45907      7203  TIP3      OH2           -24.1301212940       15.0340497026      -48.7660646341  TIP3      7003            0.0000000000
     45908      7203  TIP3      H1            -23.9520643937       14.0817983048      -48.8751481655  TIP3      7003            0.0000000000
     45909      7203  TIP3      H2            -23.7393162052       15.4368991252      -49.5700458458  TIP3      7003            0.0000000000
     45910      7204  TIP3      OH2           -36.3482281456       11.0259538917      -32.0672614354  TIP3      7004            0.0000000000
     45911      7204  TIP3      H1            -36.2272802156       10.2750582520      -31.4707101011  TIP3      7004            0.0000000000
     45912      7204  TIP3      H2            -37.3256474968       10.9008873065      -32.1874158246  TIP3      7004            0.0000000000
     45913      7205  TIP3      OH2           -32.2542081071       10.4366884275      -49.1620985702  TIP3      7005            0.0000000000
     45914      7205  TIP3      H1            -32.1752918785       10.0881908268      -48.2481156632  TIP3      7005            0.0000000000
     45915      7205  TIP3      H2            -31.4112672148       10.9045111379      -49.2604542293  TIP3      7005            0.0000000000
     45916      7206  TIP3      OH2           -30.5682237452       10.9025840782      -32.8059130591  TIP3      7006            0.0000000000
     45917      7206  TIP3      H1            -30.8604000439       11.4018142546      -33.5974192446  TIP3      7006            0.0000000000
     45918      7206  TIP3      H2            -30.7227180737        9.9514712794      -33.0246483400  TIP3      7006            0.0000000000
     45919      7207  TIP3      OH2           -24.8014467924       10.5511099416      -34.9223599265  TIP3      7007            0.0000000000
     45920      7207  TIP3      H1            -23.9522744582       11.0575710091      -34.9252187883  TIP3      7007            0.0000000000
     45921      7207  TIP3      H2            -25.3927676904       11.3211651003      -34.8199800818  TIP3      7007            0.0000000000
     45922      7208  TIP3      OH2           -36.3320435341        7.4576541223      -32.4232882882  TIP3      7008            0.0000000000
     45923      7208  TIP3      H1            -35.3575853966        7.4869181929      -32.2992610329  TIP3      7008            0.0000000000
     45924      7208  TIP3      H2            -36.6184643448        7.9495534216      -31.6271589021  TIP3      7008            0.0000000000
     45925      7209  TIP3      OH2           -31.5735924176        8.8691263516      -47.1021591282  TIP3      7009            0.0000000000
     45926      7209  TIP3      H1            -32.1506298892        8.1087743452      -46.9477256708  TIP3      7009            0.0000000000
     45927      7209  TIP3      H2            -30.9330114695        8.4945465168      -47.7419495240  TIP3      7009            0.0000000000
     45928      7210  TIP3      OH2           -32.1404202095        6.9315101557      -35.3503975251  TIP3      7010            0.0000000000
     45929      7210  TIP3      H1            -32.7595763304        7.6925780731      -35.3298899339  TIP3      7010            0.0000000000
     45930      7210  TIP3      H2            -31.4349416831        7.2725823380      -35.9392861498  TIP3      7010            0.0000000000
     45931      7211  TIP3      OH2           -30.0563064605        7.4589257381      -49.1182739134  TIP3      7011            0.0000000000
     45932      7211  TIP3      H1            -29.9066445023        6.9125378519      -49.9156615861  TIP3      7011            0.0000000000
     45933      7211  TIP3      H2            -29.1459128806        7.4038899758      -48.7211509690  TIP3      7011            0.0000000000
     45934      7212  TIP3      OH2           -26.9103456417        9.7283546283      -31.9322476886  TIP3      7012            0.0000000000
     45935      7212  TIP3      H1            -26.3226567449        9.2072174193      -32.4997196508  TIP3      7012            0.0000000000
     45936      7212  TIP3      H2            -27.3828547126        9.0238656699      -31.4585344650  TIP3      7012            0.0000000000
     45937      7213  TIP3      OH2           -21.3515361530        9.4648988135       50.0404036390  TIP3      7013            0.0000000000
     45938      7213  TIP3      H1            -20.6531590545        8.9795698130       49.5705425314  TIP3      7013            0.0000000000
     45939      7213  TIP3      H2            -20.9718122274       10.3521791099       49.9793204635  TIP3      7013            0.0000000000
     45940      7214  TIP3      OH2           -31.6005774152        4.4238484067      -34.5936926366  TIP3      7014            0.0000000000
     45941      7214  TIP3      H1            -31.5716533403        3.7862123153      -35.3382311514  TIP3      7014            0.0000000000
     45942      7214  TIP3      H2            -31.7339638650        5.2998638288      -35.0227612730  TIP3      7014            0.0000000000
     45943      7215  TIP3      OH2           -31.3341946469        2.4562932582      -36.4733212374  TIP3      7015            0.0000000000
     45944      7215  TIP3      H1            -30.7910222845        2.9957663721      -37.0978795729  TIP3      7015            0.0000000000
     45945      7215  TIP3      H2            -32.1845262724        2.4309153339      -36.9527112253  TIP3      7015            0.0000000000
     45946      7216  TIP3      OH2           -29.9337611446        8.0827268978      -36.5889051845  TIP3      7016            0.0000000000
     45947      7216  TIP3      H1            -29.0181967893        8.3722075015      -36.4980795961  TIP3      7016            0.0000000000
     45948      7216  TIP3      H2            -30.3857661247        8.8966009362      -36.8997586892  TIP3      7016            0.0000000000
     45949      7217  TIP3      OH2           -25.5836960743        5.6759443972      -31.5207153211  TIP3      7017            0.0000000000
     45950      7217  TIP3      H1            -25.3224654093        4.7447299978      -31.5219755147  TIP3      7017            0.0000000000
     45951      7217  TIP3      H2            -24.7453376305        6.1372524561      -31.6733974724  TIP3      7017            0.0000000000
     45952      7218  TIP3      OH2           -24.0118477213        8.9092734666      -32.9436550670  TIP3      7018            0.0000000000
     45953      7218  TIP3      H1            -24.3601323186        9.4264754012      -33.7017867964  TIP3      7018            0.0000000000
     45954      7218  TIP3      H2            -23.0751393909        8.8513409993      -33.2108048408  TIP3      7018            0.0000000000
     45955      7219  TIP3      OH2           -32.9753680831        4.8446850330      -32.2821849257  TIP3      7019            0.0000000000
     45956      7219  TIP3      H1            -33.9303990798        4.6370681746      -32.2922018426  TIP3      7019            0.0000000000
     45957      7219  TIP3      H2            -32.6668007622        4.6475624619      -33.1922904093  TIP3      7019            0.0000000000
     45958      7220  TIP3      OH2           -30.3603170108        0.0013549599      -36.5508295870  TIP3      7020            0.0000000000
     45959      7220  TIP3      H1            -30.7112055770        0.9063130546      -36.4028653460  TIP3      7020            0.0000000000
     45960      7220  TIP3      H2            -31.1917077361       -0.4586716887      -36.7540668671  TIP3      7020            0.0000000000
     45961      7221  TIP3      OH2           -29.5667234214        4.3905372104      -32.4632342686  TIP3      7021            0.0000000000
     45962      7221  TIP3      H1            -30.1244178644        4.1216853079      -31.7014615423  TIP3      7021            0.0000000000
     45963      7221  TIP3      H2            -30.2020854883        4.2620027403      -33.1921931192  TIP3      7021            0.0000000000
     45964      7222  TIP3      OH2           -26.8908820445        3.5782977999      -33.1414595280  TIP3      7022            0.0000000000
     45965      7222  TIP3      H1            -27.8202104287        3.6187643778      -32.8529722019  TIP3      7022            0.0000000000
     45966      7222  TIP3      H2            -26.4667627261        3.1255351247      -32.3774051516  TIP3      7022            0.0000000000
     45967      7223  TIP3      OH2           -25.1836025275        2.1379942983      -31.5072352238  TIP3      7023            0.0000000000
     45968      7223  TIP3      H1            -25.1492473424        1.1595268164      -31.5643252721  TIP3      7023            0.0000000000
     45969      7223  TIP3      H2            -25.2131472360        2.2817953952      -30.5409930430  TIP3      7023            0.0000000000
     45970      7224  TIP3      OH2           -35.3496662675        3.3049945011      -32.1126814132  TIP3      7024            0.0000000000
     45971      7224  TIP3      H1            -35.1350507423        2.4851706286      -32.5900630244  TIP3      7024            0.0000000000
     45972      7224  TIP3      H2            -35.5333322102        2.9288318001      -31.2166493815  TIP3      7024            0.0000000000
     45973      7225  TIP3      OH2           -30.4779603223       -0.2743435045      -33.7571013805  TIP3      7025            0.0000000000
     45974      7225  TIP3      H1            -29.7197955024       -0.8565840284      -33.5722561332  TIP3      7025            0.0000000000
     45975      7225  TIP3      H2            -30.5341798680       -0.3476175152      -34.7366948287  TIP3      7025            0.0000000000
     45976      7226  TIP3      OH2           -30.2552116914        0.6491982157      -31.1648679973  TIP3      7026            0.0000000000
     45977      7226  TIP3      H1            -30.4235781343        0.3268573599      -32.0772129549  TIP3      7026            0.0000000000
     45978      7226  TIP3      H2            -30.5650382241        1.5734273078      -31.2345182917  TIP3      7026            0.0000000000
     45979      7227  TIP3      OH2           -30.8423421648       17.9156834880      -47.9153585417  TIP3      7027            0.0000000000
     45980      7227  TIP3      H1            -29.8861755170       17.9335050275      -47.7575872250  TIP3      7027            0.0000000000
     45981      7227  TIP3      H2            -30.8936274779       18.2193738702      -48.8313419601  TIP3      7027            0.0000000000
     45982      7228  TIP3      OH2           -36.8274228768       12.2847316996      -48.4512403053  TIP3      7028            0.0000000000
     45983      7228  TIP3      H1            -35.8851304603       12.5708152108      -48.4100814553  TIP3      7028            0.0000000000
     45984      7228  TIP3      H2            -36.8037399687       11.6843032456      -49.2165941039  TIP3      7028            0.0000000000
     45985      7229  TIP3      OH2           -37.5336282243       17.4509078521      -44.0359664307  TIP3      7029            0.0000000000
     45986      7229  TIP3      H1            -38.3895116488       17.8853758594      -43.8341007004  TIP3      7029            0.0000000000
     45987      7229  TIP3      H2            -37.3269066316       17.0549195981      -43.1636501819  TIP3      7029            0.0000000000
     45988      7230  TIP3      OH2           -36.6810138563       16.1553904929      -41.8347584696  TIP3      7030            0.0000000000
     45989      7230  TIP3      H1            -36.9294536898       15.2180936057      -41.7829505456  TIP3      7030            0.0000000000
     45990      7230  TIP3      H2            -36.2603129191       16.2937483523      -40.9629549172  TIP3      7030            0.0000000000
     45991      7231  TIP3      OH2           -19.9427515723       16.7441547366      -39.1632315522  TIP3      7031            0.0000000000
     45992      7231  TIP3      H1            -19.5722610974       16.7590548020      -38.2696438524  TIP3      7031            0.0000000000
     45993      7231  TIP3      H2            -19.1658585710       16.9167711792      -39.7170851843  TIP3      7031            0.0000000000
     45994      7232  TIP3      OH2           -20.5904041516       16.3440506633      -36.1851790824  TIP3      7032            0.0000000000
     45995      7232  TIP3      H1            -20.9292357106       15.5387759567      -36.6442366088  TIP3      7032            0.0000000000
     45996      7232  TIP3      H2            -20.2940740832       15.9577994674      -35.3459242202  TIP3      7032            0.0000000000
     45997      7233  TIP3      OH2           -21.7352926994       12.0031380923      -31.2632335848  TIP3      7033            0.0000000000
     45998      7233  TIP3      H1            -22.6528735781       12.0520532939      -30.9313216519  TIP3      7033            0.0000000000
     45999      7233  TIP3      H2            -21.3738726527       12.8362512302      -30.8913040925  TIP3      7033            0.0000000000
     46000      7234  TIP3      OH2           -20.8121694991       10.5811152315      -46.1267140139  TIP3      7034            0.0000000000
     46001      7234  TIP3      H1            -19.9484003560       10.9922534991      -45.9067306978  TIP3      7034            0.0000000000
     46002      7234  TIP3      H2            -20.9788933563       10.0302693656      -45.3447627719  TIP3      7034            0.0000000000
     46003      7235  TIP3      OH2           -20.1726373731        8.6342995497      -43.7836119820  TIP3      7035            0.0000000000
     46004      7235  TIP3      H1            -21.0014160580        8.1781926779      -43.4952959644  TIP3      7035            0.0000000000
     46005      7235  TIP3      H2            -19.6857409816        8.7057143734      -42.9329668247  TIP3      7035            0.0000000000
     46006      7236  TIP3      OH2           -20.4890156340       11.3556937934      -39.3597709804  TIP3      7036            0.0000000000
     46007      7236  TIP3      H1            -19.8254309307       10.6451714791      -39.5003965515  TIP3      7036            0.0000000000
     46008      7236  TIP3      H2            -20.0722482633       12.1343895614      -39.7793889736  TIP3      7036            0.0000000000
     46009      7237  TIP3      OH2           -21.8323988088       14.0771840664      -36.8832803696  TIP3      7037            0.0000000000
     46010      7237  TIP3      H1            -22.5481089192       14.4887144411      -36.3664145273  TIP3      7037            0.0000000000
     46011      7237  TIP3      H2            -22.3075163226       13.7215468233      -37.6689404298  TIP3      7037            0.0000000000
     46012      7238  TIP3      OH2           -19.7706680480        8.3979976462      -47.8075689163  TIP3      7038            0.0000000000
     46013      7238  TIP3      H1            -20.4587093368        8.5789868675      -48.4681168108  TIP3      7038            0.0000000000
     46014      7238  TIP3      H2            -19.9609588887        9.0986171077      -47.1589380435  TIP3      7038            0.0000000000
     46015      7239  TIP3      OH2           -22.0480490249        5.3712811191      -48.4283016550  TIP3      7039            0.0000000000
     46016      7239  TIP3      H1            -22.3112198408        6.0235793465      -49.1035081522  TIP3      7039            0.0000000000
     46017      7239  TIP3      H2            -21.4923964917        4.8091146398      -48.9886127854  TIP3      7039            0.0000000000
     46018      7240  TIP3      OH2           -22.2929179838        7.1891105453      -43.1062167983  TIP3      7040            0.0000000000
     46019      7240  TIP3      H1            -22.4827888592        6.2695298874      -43.3460271529  TIP3      7040            0.0000000000
     46020      7240  TIP3      H2            -22.5856095519        7.1789941856      -42.1661801402  TIP3      7040            0.0000000000
     46021      7241  TIP3      OH2           -36.7446986379        9.9014975299      -39.4788546786  TIP3      7041            0.0000000000
     46022      7241  TIP3      H1            -36.6837320605        9.4019053636      -40.3207201549  TIP3      7041            0.0000000000
     46023      7241  TIP3      H2            -35.9520932228        9.5895881822      -38.9928415309  TIP3      7041            0.0000000000
     46024      7242  TIP3      OH2           -21.2130709899        9.1098617041      -33.6770628193  TIP3      7042            0.0000000000
     46025      7242  TIP3      H1            -20.7213627761        8.2697305044      -33.5408521350  TIP3      7042            0.0000000000
     46026      7242  TIP3      H2            -20.5091149259        9.7810279685      -33.8347786574  TIP3      7042            0.0000000000
     46027      7243  TIP3      OH2           -20.2281240684        6.4387438232      -33.2898218231  TIP3      7043            0.0000000000
     46028      7243  TIP3      H1            -21.1598009361        6.1161884257      -33.3527642501  TIP3      7043            0.0000000000
     46029      7243  TIP3      H2            -19.7085597814        5.6084370274      -33.1442183945  TIP3      7043            0.0000000000
     46030      7244  TIP3      OH2           -22.2280314896        3.0928068856      -50.1539444151  TIP3      7044            0.0000000000
     46031      7244  TIP3      H1            -21.6576253783        2.7184828440      -49.4565563373  TIP3      7044            0.0000000000
     46032      7244  TIP3      H2            -23.1091226723        2.8805379115      -49.8206395664  TIP3      7044            0.0000000000
     46033      7245  TIP3      OH2           -22.9076436688        4.7944091057      -45.0467708683  TIP3      7045            0.0000000000
     46034      7245  TIP3      H1            -22.7203988878        3.8741626568      -44.7465250846  TIP3      7045            0.0000000000
     46035      7245  TIP3      H2            -22.0223122558        5.0078340391      -45.3580424285  TIP3      7045            0.0000000000
     46036      7246  TIP3      OH2           -21.8464391720        5.1744790386      -39.4263748973  TIP3      7046            0.0000000000
     46037      7246  TIP3      H1            -20.8814922482        5.3832351968      -39.3510863112  TIP3      7046            0.0000000000
     46038      7246  TIP3      H2            -22.1245170296        5.3116692262      -38.5070764899  TIP3      7046            0.0000000000
     46039      7247  TIP3      OH2           -21.7809625818        6.0404736334      -36.8682336026  TIP3      7047            0.0000000000
     46040      7247  TIP3      H1            -22.5887487321        6.3226179761      -36.3991366558  TIP3      7047            0.0000000000
     46041      7247  TIP3      H2            -21.3502134611        6.9094335526      -37.0582594953  TIP3      7047            0.0000000000
     46042      7248  TIP3      OH2           -37.2025397065        4.1905114585      -33.7509482747  TIP3      7048            0.0000000000
     46043      7248  TIP3      H1            -36.4916470371        4.4770078661      -33.1276987721  TIP3      7048            0.0000000000
     46044      7248  TIP3      H2            -37.1390354692        3.2279495549      -33.6659050603  TIP3      7048            0.0000000000
     46045      7249  TIP3      OH2           -19.5758708739        0.2609403121      -31.5775106089  TIP3      7049            0.0000000000
     46046      7249  TIP3      H1            -19.2950618848       -0.4959098477      -32.1250527659  TIP3      7049            0.0000000000
     46047      7249  TIP3      H2            -19.7022416412        0.9622493129      -32.2647004103  TIP3      7049            0.0000000000
     46048      7250  TIP3      OH2           -21.9390559164        2.2350297914      -44.6403168370  TIP3      7050            0.0000000000
     46049      7250  TIP3      H1            -21.5708292202        1.7467859878      -43.8696551858  TIP3      7050            0.0000000000
     46050      7250  TIP3      H2            -22.4349361126        1.5180014721      -45.0736445417  TIP3      7050            0.0000000000
     46051      7251  TIP3      OH2           -36.7107798494        2.7583134751      -39.7164286893  TIP3      7051            0.0000000000
     46052      7251  TIP3      H1            -36.1089532751        1.9880627104      -39.6841313081  TIP3      7051            0.0000000000
     46053      7251  TIP3      H2            -36.1214204879        3.5147911475      -39.6224714399  TIP3      7051            0.0000000000
     46054      7252  TIP3      OH2           -37.4737632467        5.8104905255      -39.5442957763  TIP3      7052            0.0000000000
     46055      7252  TIP3      H1            -36.6845453952        5.7461380543      -40.0964615803  TIP3      7052            0.0000000000
     46056      7252  TIP3      H2            -37.2759301809        6.5062135524      -38.9078566437  TIP3      7052            0.0000000000
     46057      7253  TIP3      OH2           -20.2827971998        2.3095460700      -33.1464471658  TIP3      7053            0.0000000000
     46058      7253  TIP3      H1            -20.9926749751        2.7379507473      -32.6028170733  TIP3      7053            0.0000000000
     46059      7253  TIP3      H2            -20.7850405974        2.0816576715      -33.9481336176  TIP3      7053            0.0000000000
     46060      7254  TIP3      OH2           -20.1601271657        2.2959251792      -48.2722595694  TIP3      7054            0.0000000000
     46061      7254  TIP3      H1            -19.7275857211        1.7307740859      -48.9286709956  TIP3      7054            0.0000000000
     46062      7254  TIP3      H2            -19.3982714446        2.8565406514      -48.0099488459  TIP3      7054            0.0000000000
     46063      7255  TIP3      OH2           -37.3580513310        2.0960563012      -45.1747221470  TIP3      7055            0.0000000000
     46064      7255  TIP3      H1            -38.3334149965        2.0095277604      -45.2069600887  TIP3      7055            0.0000000000
     46065      7255  TIP3      H2            -37.2238545192        2.5579706666      -46.0340350784  TIP3      7055            0.0000000000
     46066      7256  TIP3      OH2           -23.0899528538       16.8830565797      -43.1384258238  TIP3      7056            0.0000000000
     46067      7256  TIP3      H1            -22.4382761470       16.8091771982      -43.8677952917  TIP3      7056            0.0000000000
     46068      7256  TIP3      H2            -22.7020088867       17.5407358928      -42.5406644414  TIP3      7056            0.0000000000
     46069      7257  TIP3      OH2           -37.6829072127        0.3230006344      -36.8210710588  TIP3      7057            0.0000000000
     46070      7257  TIP3      H1            -38.6163058307        0.1129011634      -36.6003414152  TIP3      7057            0.0000000000
     46071      7257  TIP3      H2            -37.8308962805        0.9021725838      -37.5856199968  TIP3      7057            0.0000000000
     46072      7258  TIP3      OH2           -35.9084028693       13.5507593191      -32.6879391571  TIP3      7058            0.0000000000
     46073      7258  TIP3      H1            -36.4181263748       13.4535498019      -33.4934318806  TIP3      7058            0.0000000000
     46074      7258  TIP3      H2            -35.7531052475       12.5878303293      -32.5010809130  TIP3      7058            0.0000000000
     46075      7259  TIP3      OH2           -32.6763128977       15.3527724355      -36.3129080598  TIP3      7059            0.0000000000
     46076      7259  TIP3      H1            -32.7229544731       16.2490543243      -36.7146780620  TIP3      7059            0.0000000000
     46077      7259  TIP3      H2            -31.7169254965       15.1633733170      -36.3783797439  TIP3      7059            0.0000000000
     46078      7260  TIP3      OH2           -28.5517157270       16.5197960360      -33.8464141780  TIP3      7060            0.0000000000
     46079      7260  TIP3      H1            -28.5000062289       16.2535543243      -32.9093337043  TIP3      7060            0.0000000000
     46080      7260  TIP3      H2            -27.6425065722       16.8419579653      -34.0201378128  TIP3      7060            0.0000000000
     46081      7261  TIP3      OH2           -26.2997139878       17.9724104441      -34.3028716030  TIP3      7061            0.0000000000
     46082      7261  TIP3      H1            -25.4894829516       17.6700369645      -34.7224419671  TIP3      7061            0.0000000000
     46083      7261  TIP3      H2            -25.9803247779       18.1928230222      -33.3949804537  TIP3      7061            0.0000000000
     46084      7262  TIP3      OH2           -21.1405909627        0.0645607762      -35.1534233967  TIP3      7062            0.0000000000
     46085      7262  TIP3      H1            -21.9137554339        0.4225962332      -35.6094720694  TIP3      7062            0.0000000000
     46086      7262  TIP3      H2            -21.0819184802       -0.8397602496      -35.5282441336  TIP3      7062            0.0000000000
     46087      7263  TIP3      OH2           -35.1825184494       18.2617475687      -36.4113105629  TIP3      7063            0.0000000000
     46088      7263  TIP3      H1            -35.9795936717       18.7103804873      -36.7771025971  TIP3      7063            0.0000000000
     46089      7263  TIP3      H2            -35.3999275484       18.2183328937      -35.4719388239  TIP3      7063            0.0000000000
     46090      7264  TIP3      OH2           -32.8880538870       17.7331420944      -37.5654949268  TIP3      7064            0.0000000000
     46091      7264  TIP3      H1            -33.8268506741       17.8896333671      -37.2804549882  TIP3      7064            0.0000000000
     46092      7264  TIP3      H2            -32.8610767705       18.3188062059      -38.3402041429  TIP3      7064            0.0000000000
     46093      7265  TIP3      OH2           -28.4433296541       17.2553497230      -38.1914952354  TIP3      7065            0.0000000000
     46094      7265  TIP3      H1            -28.7484223490       17.8071379087      -38.9174671024  TIP3      7065            0.0000000000
     46095      7265  TIP3      H2            -28.1339582560       17.9469644518      -37.5688059662  TIP3      7065            0.0000000000
     46096      7266  TIP3      OH2           -26.1819519068       16.0591027214      -36.8667899182  TIP3      7066            0.0000000000
     46097      7266  TIP3      H1            -26.8306376948       16.4140479539      -37.5027650570  TIP3      7066            0.0000000000
     46098      7266  TIP3      H2            -25.4224076942       16.6416590635      -37.0605550577  TIP3      7066            0.0000000000
     46099      7267  TIP3      OH2           -23.6735749490       17.6074053755      -37.2108670923  TIP3      7067            0.0000000000
     46100      7267  TIP3      H1            -23.4938346516       18.5341841706      -37.4364362395  TIP3      7067            0.0000000000
     46101      7267  TIP3      H2            -23.2179633497       17.1632608016      -37.9676345955  TIP3      7067            0.0000000000
     46102      7268  TIP3      OH2           -35.4501369141       16.9131488293      -39.3852030582  TIP3      7068            0.0000000000
     46103      7268  TIP3      H1            -35.7701824987       16.4200512607      -38.5997582110  TIP3      7068            0.0000000000
     46104      7268  TIP3      H2            -34.6892643541       16.3755176378      -39.6988788707  TIP3      7068            0.0000000000
     46105      7269  TIP3      OH2           -33.6719120909       15.4701314302      -40.7150785920  TIP3      7069            0.0000000000
     46106      7269  TIP3      H1            -33.9711781583       14.5650927004      -40.5741766910  TIP3      7069            0.0000000000
     46107      7269  TIP3      H2            -32.7240199901       15.4347218112      -40.4298798566  TIP3      7069            0.0000000000
     46108      7270  TIP3      OH2           -31.2270664236       15.4152761849      -39.6589326684  TIP3      7070            0.0000000000
     46109      7270  TIP3      H1            -30.7420366335       14.5768019977      -39.7017535679  TIP3      7070            0.0000000000
     46110      7270  TIP3      H2            -31.0801711189       15.6601313293      -38.7298388783  TIP3      7070            0.0000000000
     46111      7271  TIP3      OH2           -27.9165122824        1.3491756575      -40.7366570934  TIP3      7071            0.0000000000
     46112      7271  TIP3      H1            -28.7155589554        0.9913216331      -40.3252152041  TIP3      7071            0.0000000000
     46113      7271  TIP3      H2            -27.7437132866        0.6733572444      -41.4070287894  TIP3      7071            0.0000000000
     46114      7272  TIP3      OH2           -22.4870520451       -0.5532945835      -41.0356001212  TIP3      7072            0.0000000000
     46115      7272  TIP3      H1            -21.8187346160        0.0333871036      -41.4683598606  TIP3      7072            0.0000000000
     46116      7272  TIP3      H2            -23.3261143598       -0.2254515906      -41.4357865262  TIP3      7072            0.0000000000
     46117      7273  TIP3      OH2           -20.8342765332        0.7490778332      -42.6647050953  TIP3      7073            0.0000000000
     46118      7273  TIP3      H1            -20.1882903982        0.1528793915      -43.1146897190  TIP3      7073            0.0000000000
     46119      7273  TIP3      H2            -20.2508073130        1.5170498004      -42.4449094921  TIP3      7073            0.0000000000
     46120      7274  TIP3      OH2           -35.0154433326       -0.1066054552      -42.9836742543  TIP3      7074            0.0000000000
     46121      7274  TIP3      H1            -35.7864534420       -0.1668193421      -43.5797606364  TIP3      7074            0.0000000000
     46122      7274  TIP3      H2            -34.5614662784       -0.9563672077      -43.1655323391  TIP3      7074            0.0000000000
     46123      7275  TIP3      OH2           -37.2990029406        0.2273072997      -47.6190403604  TIP3      7075            0.0000000000
     46124      7275  TIP3      H1            -36.6706806184        0.7381068201      -48.1818686529  TIP3      7075            0.0000000000
     46125      7275  TIP3      H2            -37.1319241020        0.6539755164      -46.7660510567  TIP3      7075            0.0000000000
     46126      7276  TIP3      OH2           -30.9376763942       -0.2135609703      -43.2164273322  TIP3      7076            0.0000000000
     46127      7276  TIP3      H1            -30.1024568634        0.1516538907      -43.5446519093  TIP3      7076            0.0000000000
     46128      7276  TIP3      H2            -30.8570419154       -0.0336813233      -42.2740007789  TIP3      7076            0.0000000000
     46129      7277  TIP3      OH2           -24.9131976021       -0.0178734300      -42.0622036005  TIP3      7077            0.0000000000
     46130      7277  TIP3      H1            -25.4940901032        0.0769856195      -42.8243206511  TIP3      7077            0.0000000000
     46131      7277  TIP3      H2            -25.3918599417       -0.6759015114      -41.5069332859  TIP3      7077            0.0000000000
     46132      7278  TIP3      OH2           -23.7283756141       -0.0687957756      -45.8504378697  TIP3      7078            0.0000000000
     46133      7278  TIP3      H1            -24.4720042351        0.5455769018      -45.9536352703  TIP3      7078            0.0000000000
     46134      7278  TIP3      H2            -24.1197893754       -0.7472987658      -45.2577825869  TIP3      7078            0.0000000000
     46135      7279  TIP3      OH2           -36.4293943781       16.4064064574      -46.8520305818  TIP3      7079            0.0000000000
     46136      7279  TIP3      H1            -37.3348308341       16.3943344470      -46.5163777024  TIP3      7079            0.0000000000
     46137      7279  TIP3      H2            -36.3325919597       17.3759996063      -46.9965409186  TIP3      7079            0.0000000000
     46138      7280  TIP3      OH2           -34.8972011389        1.4141273766      -48.7592136436  TIP3      7080            0.0000000000
     46139      7280  TIP3      H1            -34.3399932514        0.8159970031      -49.2679585663  TIP3      7080            0.0000000000
     46140      7280  TIP3      H2            -34.2603500238        1.7486193104      -48.1061118380  TIP3      7080            0.0000000000
     46141      7281  TIP3      OH2           -29.6650654852        2.2587314254      -46.4033860237  TIP3      7081            0.0000000000
     46142      7281  TIP3      H1            -29.3411019140        1.5959621796      -45.7787514794  TIP3      7081            0.0000000000
     46143      7281  TIP3      H2            -29.4255613740        3.0711146122      -45.9082069782  TIP3      7081            0.0000000000
     46144      7282  TIP3      OH2           -27.9684558586       17.1282805563      -48.2296083955  TIP3      7082            0.0000000000
     46145      7282  TIP3      H1            -27.0007293078       17.3682973807      -48.1869814948  TIP3      7082            0.0000000000
     46146      7282  TIP3      H2            -27.9947679752       16.7029937356      -49.1111942618  TIP3      7082            0.0000000000
     46147      7283  TIP3      OH2           -21.3743859881       16.4073829369      -45.0021041904  TIP3      7083            0.0000000000
     46148      7283  TIP3      H1            -21.4184093394       15.5017367179      -45.3812130877  TIP3      7083            0.0000000000
     46149      7283  TIP3      H2            -21.4978234066       16.9661204739      -45.7933127386  TIP3      7083            0.0000000000
     46150      7284  TIP3      OH2           -35.7068325112        0.7004740049      -33.4411702944  TIP3      7084            0.0000000000
     46151      7284  TIP3      H1            -36.2162693230       -0.1464936157      -33.4191395274  TIP3      7084            0.0000000000
     46152      7284  TIP3      H2            -34.8345924780        0.4058212245      -33.0960122770  TIP3      7084            0.0000000000
     46153      7285  TIP3      OH2           -33.4063839340        0.0035269127      -31.6906665236  TIP3      7085            0.0000000000
     46154      7285  TIP3      H1            -32.4690598072       -0.1466736284      -31.9106774695  TIP3      7085            0.0000000000
     46155      7285  TIP3      H2            -33.6178013851       -0.8949841385      -31.3673898967  TIP3      7085            0.0000000000
     46156      7286  TIP3      OH2           -33.7775004320       17.2157376582      -48.7108833556  TIP3      7086            0.0000000000
     46157      7286  TIP3      H1            -34.5241540337       16.9853635689      -48.1324825571  TIP3      7086            0.0000000000
     46158      7286  TIP3      H2            -33.0881269236       16.6089780926      -48.3947995065  TIP3      7086            0.0000000000
     46159      7287  TIP3      OH2           -25.2341227619       -0.5860339409      -31.6975677501  TIP3      7087            0.0000000000
     46160      7287  TIP3      H1            -25.2772914421       -1.2293601241      -30.9557705212  TIP3      7087            0.0000000000
     46161      7287  TIP3      H2            -24.3134987028       -0.7632042829      -31.9831999367  TIP3      7087            0.0000000000
     46162      7288  TIP3      OH2           -21.8519983567       15.5196834916      -33.3032803428  TIP3      7088            0.0000000000
     46163      7288  TIP3      H1            -22.4741597012       15.5356099712      -34.0657195669  TIP3      7088            0.0000000000
     46164      7288  TIP3      H2            -22.0193427931       16.4032519296      -32.9430865739  TIP3      7088            0.0000000000
     46165      7289  TIP3      OH2            -7.2210022044        9.4350561312      -43.1138724588  TIP3      7089            0.0000000000
     46166      7289  TIP3      H1             -7.3249122464       10.2966155921      -42.6596397710  TIP3      7089            0.0000000000
     46167      7289  TIP3      H2             -8.0173130156        9.4306399096      -43.6671152184  TIP3      7089            0.0000000000
     46168      7290  TIP3      OH2            -8.5519348615        8.2116118533      -39.7806883304  TIP3      7090            0.0000000000
     46169      7290  TIP3      H1             -8.5435192598        7.8169990038      -38.8777558138  TIP3      7090            0.0000000000
     46170      7290  TIP3      H2             -9.1332815778        7.5938408833      -40.2779487161  TIP3      7090            0.0000000000
     46171      7291  TIP3      OH2           -16.4570439191        8.2380716220      -38.3272145368  TIP3      7091            0.0000000000
     46172      7291  TIP3      H1            -16.5057582563        7.5114107198      -37.6789409033  TIP3      7091            0.0000000000
     46173      7291  TIP3      H2            -15.7005624607        8.7255392959      -37.9700600515  TIP3      7091            0.0000000000
     46174      7292  TIP3      OH2            -5.3622537529       11.3655694357      -41.1963232849  TIP3      7092            0.0000000000
     46175      7292  TIP3      H1             -5.5026206900       10.6368571313      -40.5733486394  TIP3      7092            0.0000000000
     46176      7292  TIP3      H2             -5.0608322745       12.0567994626      -40.5892114397  TIP3      7092            0.0000000000
     46177      7293  TIP3      OH2           -15.4384480685       12.8888468830      -39.9851630658  TIP3      7093            0.0000000000
     46178      7293  TIP3      H1            -15.7794762690       11.9882407427      -40.1580566526  TIP3      7093            0.0000000000
     46179      7293  TIP3      H2            -14.4913265051       12.6636242090      -40.0437162391  TIP3      7093            0.0000000000
     46180      7294  TIP3      OH2           -18.6802723420        6.1630770292      -44.1792511760  TIP3      7094            0.0000000000
     46181      7294  TIP3      H1            -19.1153729913        7.0313013145      -44.0706808441  TIP3      7094            0.0000000000
     46182      7294  TIP3      H2            -19.2296532009        5.7745794560      -44.8842325683  TIP3      7094            0.0000000000
     46183      7295  TIP3      OH2           -18.1511402750        8.6211803111      -41.7622179647  TIP3      7095            0.0000000000
     46184      7295  TIP3      H1            -17.6900576013        7.7584770461      -41.6173157339  TIP3      7095            0.0000000000
     46185      7295  TIP3      H2            -17.4808405079        9.1649855815      -42.2000668167  TIP3      7095            0.0000000000
     46186      7296  TIP3      OH2            -7.7743889421       16.8669567154      -41.3917786587  TIP3      7096            0.0000000000
     46187      7296  TIP3      H1             -7.1201147115       16.2669597385      -41.8395712481  TIP3      7096            0.0000000000
     46188      7296  TIP3      H2             -8.0491037164       16.2792481116      -40.6759820535  TIP3      7096            0.0000000000
     46189      7297  TIP3      OH2           -10.4366422076       10.9696929180      -38.8365089457  TIP3      7097            0.0000000000
     46190      7297  TIP3      H1            -10.1283508492       10.4843669465      -39.6130804518  TIP3      7097            0.0000000000
     46191      7297  TIP3      H2             -9.5639717148       11.2478554386      -38.4744065880  TIP3      7097            0.0000000000
     46192      7298  TIP3      OH2            -1.7062606809        2.4095902795      -38.7528881662  TIP3      7098            0.0000000000
     46193      7298  TIP3      H1             -1.7240364606        3.0645588676      -38.0278972374  TIP3      7098            0.0000000000
     46194      7298  TIP3      H2             -0.8837649187        2.6814532311      -39.1910771472  TIP3      7098            0.0000000000
     46195      7299  TIP3      OH2            -6.6643656219        5.4907918405      -38.6100305898  TIP3      7099            0.0000000000
     46196      7299  TIP3      H1             -6.5569350805        4.5260422159      -38.4942321240  TIP3      7099            0.0000000000
     46197      7299  TIP3      H2             -7.1008430060        5.5244936616      -39.4800980064  TIP3      7099            0.0000000000
     46198      7300  TIP3      OH2           -13.9342215834        3.2033378560      -42.0149687667  TIP3      7100            0.0000000000
     46199      7300  TIP3      H1            -13.7913124438        4.0152085720      -42.5544665753  TIP3      7100            0.0000000000
     46200      7300  TIP3      H2            -14.3407352291        2.6377678263      -42.6988340426  TIP3      7100            0.0000000000
     46201      7301  TIP3      OH2            -6.3690995635        3.5748405670      -43.2196509663  TIP3      7101            0.0000000000
     46202      7301  TIP3      H1             -5.7513032861        3.1541005927      -42.5718986127  TIP3      7101            0.0000000000
     46203      7301  TIP3      H2             -5.7721882399        4.1836048187      -43.6832075395  TIP3      7101            0.0000000000
     46204      7302  TIP3      OH2           -17.3470147766        6.0855456921      -41.0168682934  TIP3      7102            0.0000000000
     46205      7302  TIP3      H1            -16.7334060265        5.5126482102      -40.5193836959  TIP3      7102            0.0000000000
     46206      7302  TIP3      H2            -17.2058441021        5.7276115286      -41.9154832486  TIP3      7102            0.0000000000
     46207      7303  TIP3      OH2           -12.4756291069        7.3596475688      -41.4780370344  TIP3      7103            0.0000000000
     46208      7303  TIP3      H1            -11.6457813370        6.9288879195      -41.2103861980  TIP3      7103            0.0000000000
     46209      7303  TIP3      H2            -12.9231063055        6.6340322524      -41.9507530256  TIP3      7103            0.0000000000
     46210      7304  TIP3      OH2            -1.6158108873        3.8311491080      -36.3547484663  TIP3      7104            0.0000000000
     46211      7304  TIP3      H1             -1.9214051877        4.6961625316      -36.7269603139  TIP3      7104            0.0000000000
     46212      7304  TIP3      H2             -1.4220218608        4.1333282412      -35.4504277665  TIP3      7104            0.0000000000
     46213      7305  TIP3      OH2           -14.8732412499        2.4822524438      -37.7843639712  TIP3      7105            0.0000000000
     46214      7305  TIP3      H1            -15.3151792462        2.9235945609      -38.5383397266  TIP3      7105            0.0000000000
     46215      7305  TIP3      H2            -15.5056494218        2.6926752215      -37.0621236022  TIP3      7105            0.0000000000
     46216      7306  TIP3      OH2            -8.0248355748       11.9453657562      -44.2189793261  TIP3      7106            0.0000000000
     46217      7306  TIP3      H1             -8.0355575615       11.8875060507      -45.1818436973  TIP3      7106            0.0000000000
     46218      7306  TIP3      H2             -8.3078367554       12.8664672052      -44.0662853655  TIP3      7106            0.0000000000
     46219      7307  TIP3      OH2           -12.7862965536       10.0752218894      -38.0131035706  TIP3      7107            0.0000000000
     46220      7307  TIP3      H1            -13.2993351378       10.8309874699      -37.6443281855  TIP3      7107            0.0000000000
     46221      7307  TIP3      H2            -12.0056849904       10.5558256156      -38.3686933608  TIP3      7107            0.0000000000
     46222      7308  TIP3      OH2            -4.3341924730        2.8306540527      -41.5845604555  TIP3      7108            0.0000000000
     46223      7308  TIP3      H1             -4.6860709133        2.2220879060      -40.9201083838  TIP3      7108            0.0000000000
     46224      7308  TIP3      H2             -3.5704110414        3.1991306435      -41.1248030835  TIP3      7108            0.0000000000
     46225      7309  TIP3      OH2           -15.4346897707        4.3011990978      -39.8816549305  TIP3      7109            0.0000000000
     46226      7309  TIP3      H1            -14.7996095138        4.8843006739      -39.3989316093  TIP3      7109            0.0000000000
     46227      7309  TIP3      H2            -14.8809201452        4.0047882195      -40.6447688082  TIP3      7109            0.0000000000
     46228      7310  TIP3      OH2           -13.9783964113       12.3048136618      -36.8606697920  TIP3      7110            0.0000000000
     46229      7310  TIP3      H1            -14.1485296360       13.0660107400      -37.4303852848  TIP3      7110            0.0000000000
     46230      7310  TIP3      H2            -14.8435951536       12.2293645589      -36.3917094528  TIP3      7110            0.0000000000
     46231      7311  TIP3      OH2           -18.1463965053       11.6423228573      -45.9999981464  TIP3      7111            0.0000000000
     46232      7311  TIP3      H1            -18.1512298502       12.1751794531      -46.8277485533  TIP3      7111            0.0000000000
     46233      7311  TIP3      H2            -18.0527942366       12.3280000218      -45.3087148269  TIP3      7111            0.0000000000
     46234      7312  TIP3      OH2            -4.4062507252       13.4525197853      -39.1497547796  TIP3      7112            0.0000000000
     46235      7312  TIP3      H1             -5.3405274644       13.6476972484      -38.9333690767  TIP3      7112            0.0000000000
     46236      7312  TIP3      H2             -4.1842756978       14.3012865159      -39.5721030567  TIP3      7112            0.0000000000
     46237      7313  TIP3      OH2            -4.4916379744        1.8755296261      -38.0794754206  TIP3      7113            0.0000000000
     46238      7313  TIP3      H1             -5.1076112336        2.0182823844      -38.8300375920  TIP3      7113            0.0000000000
     46239      7313  TIP3      H2             -3.6635978683        2.1356269903      -38.5100983606  TIP3      7113            0.0000000000
     46240      7314  TIP3      OH2           -11.4461042265       -0.1378943679      -40.5098171304  TIP3      7114            0.0000000000
     46241      7314  TIP3      H1            -11.6762698432       -1.0547582789      -40.2975345786  TIP3      7114            0.0000000000
     46242      7314  TIP3      H2            -12.3122359506        0.2954408564      -40.2573548556  TIP3      7114            0.0000000000
     46243      7315  TIP3      OH2            -6.0679649149       15.1938790485      -42.5485353704  TIP3      7115            0.0000000000
     46244      7315  TIP3      H1             -5.8849727023       14.3661860979      -43.0391565740  TIP3      7115            0.0000000000
     46245      7315  TIP3      H2             -5.2512507547       15.7025765114      -42.7697693423  TIP3      7115            0.0000000000
     46246      7316  TIP3      OH2            -5.1197273241       13.0179970431      -43.9227461311  TIP3      7116            0.0000000000
     46247      7316  TIP3      H1             -5.1772974183       12.3512151042      -44.6252278350  TIP3      7116            0.0000000000
     46248      7316  TIP3      H2             -5.1786553494       12.4523579300      -43.1391798712  TIP3      7116            0.0000000000
     46249      7317  TIP3      OH2            -3.4487146923       11.7248007132      -35.3289736362  TIP3      7117            0.0000000000
     46250      7317  TIP3      H1             -3.2015961416       10.9917515938      -35.9456699620  TIP3      7117            0.0000000000
     46251      7317  TIP3      H2             -3.3493935352       12.4755341157      -35.9496541388  TIP3      7117            0.0000000000
     46252      7318  TIP3      OH2            -8.8492696144        8.7277180659      -45.7278662824  TIP3      7118            0.0000000000
     46253      7318  TIP3      H1             -9.2968490359        9.5751603851      -45.9296633351  TIP3      7118            0.0000000000
     46254      7318  TIP3      H2             -8.0039926423        8.7850300068      -46.2219625262  TIP3      7118            0.0000000000
     46255      7319  TIP3      OH2            -8.3324522010        7.2996329794      -48.6095572262  TIP3      7119            0.0000000000
     46256      7319  TIP3      H1             -7.5928575158        7.6687299559      -48.0704644915  TIP3      7119            0.0000000000
     46257      7319  TIP3      H2             -8.0040103030        6.3862481202      -48.7735131749  TIP3      7119            0.0000000000
     46258      7320  TIP3      OH2            -1.3449990393        8.1732682488      -37.4353723476  TIP3      7120            0.0000000000
     46259      7320  TIP3      H1             -2.0305105344        8.8672472102      -37.4659637936  TIP3      7120            0.0000000000
     46260      7320  TIP3      H2             -0.7179661390        8.5285788381      -38.0971757146  TIP3      7120            0.0000000000
     46261      7321  TIP3      OH2            -5.1633033102        8.5476791407      -44.6048165230  TIP3      7121            0.0000000000
     46262      7321  TIP3      H1             -5.8613592347        8.9406618270      -44.0204790081  TIP3      7121            0.0000000000
     46263      7321  TIP3      H2             -4.5220147528        8.1731612207      -43.9600604437  TIP3      7121            0.0000000000
     46264      7322  TIP3      OH2            -5.3578489454        6.9390962578      -35.5622468198  TIP3      7122            0.0000000000
     46265      7322  TIP3      H1             -5.3975311061        7.8409717337      -35.2030348443  TIP3      7122            0.0000000000
     46266      7322  TIP3      H2             -6.0069851536        7.0285122128      -36.2848015698  TIP3      7122            0.0000000000
     46267      7323  TIP3      OH2           -13.8148433396        9.3141396948      -42.7592400502  TIP3      7123            0.0000000000
     46268      7323  TIP3      H1            -14.1020966367        9.0549506352      -43.6580171906  TIP3      7123            0.0000000000
     46269      7323  TIP3      H2            -13.1844265970        8.5856955481      -42.5550878205  TIP3      7123            0.0000000000
     46270      7324  TIP3      OH2           -12.4249372366       12.7209091452      -40.2147808414  TIP3      7124            0.0000000000
     46271      7324  TIP3      H1            -12.3714221218       12.5799821166      -41.1738517131  TIP3      7124            0.0000000000
     46272      7324  TIP3      H2            -11.6710962534       12.2047463770      -39.8762120293  TIP3      7124            0.0000000000
     46273      7325  TIP3      OH2           -13.6658531341        7.8515805760      -39.0824565247  TIP3      7125            0.0000000000
     46274      7325  TIP3      H1            -13.3134967619        7.8986439867      -39.9992188897  TIP3      7125            0.0000000000
     46275      7325  TIP3      H2            -13.2271972407        8.6318830026      -38.6711001755  TIP3      7125            0.0000000000
     46276      7326  TIP3      OH2            -6.9712758623       13.8402259391      -38.4224561038  TIP3      7126            0.0000000000
     46277      7326  TIP3      H1             -7.1982086778       14.3834475764      -37.6472935971  TIP3      7126            0.0000000000
     46278      7326  TIP3      H2             -7.1526713984       12.9350619123      -38.1009958907  TIP3      7126            0.0000000000
     46279      7327  TIP3      OH2           -12.3320247888       12.7407559667      -34.7389294408  TIP3      7127            0.0000000000
     46280      7327  TIP3      H1            -13.0516726100       13.1967509906      -34.2452036676  TIP3      7127            0.0000000000
     46281      7327  TIP3      H2            -12.7941722670       12.5827276924      -35.5948540478  TIP3      7127            0.0000000000
     46282      7328  TIP3      OH2            -6.4633902465        8.3020006512      -46.8967574460  TIP3      7128            0.0000000000
     46283      7328  TIP3      H1             -5.9580822187        8.3624536590      -46.0434606854  TIP3      7128            0.0000000000
     46284      7328  TIP3      H2             -5.8334473651        8.7267784554      -47.5362757663  TIP3      7128            0.0000000000
     46285      7329  TIP3      OH2           -15.4607138132        8.7704495859      -35.6027559375  TIP3      7129            0.0000000000
     46286      7329  TIP3      H1            -15.2632193173        9.4966121666      -34.9951371767  TIP3      7129            0.0000000000
     46287      7329  TIP3      H2            -16.2304663481        8.3763550631      -35.1478409285  TIP3      7129            0.0000000000
     46288      7330  TIP3      OH2            -8.9504106495       14.9051819990      -44.2525309371  TIP3      7130            0.0000000000
     46289      7330  TIP3      H1             -8.7606559125       15.1376462153      -43.3352667707  TIP3      7130            0.0000000000
     46290      7330  TIP3      H2             -9.2455120541       15.7374726006      -44.6640392432  TIP3      7130            0.0000000000
     46291      7331  TIP3      OH2           -14.1822355429       14.3168941507      -33.6493448858  TIP3      7131            0.0000000000
     46292      7331  TIP3      H1            -14.3386693526       14.8217026193      -34.4758595015  TIP3      7131            0.0000000000
     46293      7331  TIP3      H2            -15.1057606362       14.0327624199      -33.4724084363  TIP3      7131            0.0000000000
     46294      7332  TIP3      OH2            -2.4712514278       -0.4038043091      -46.8218352770  TIP3      7132            0.0000000000
     46295      7332  TIP3      H1             -3.4369314738       -0.4006873378      -46.6302268787  TIP3      7132            0.0000000000
     46296      7332  TIP3      H2             -2.3432151006        0.5328653392      -47.0405088436  TIP3      7132            0.0000000000
     46297      7333  TIP3      OH2           -14.7837493266        8.2089770232      -45.1349247388  TIP3      7133            0.0000000000
     46298      7333  TIP3      H1            -15.2402157290        8.9495824596      -45.5611610955  TIP3      7133            0.0000000000
     46299      7333  TIP3      H2            -15.2113550378        7.4351038130      -45.5212368388  TIP3      7133            0.0000000000
     46300      7334  TIP3      OH2            -1.7270512642       14.3589037429      -48.6002400643  TIP3      7134            0.0000000000
     46301      7334  TIP3      H1             -1.5195304645       15.3133157246      -48.4852561481  TIP3      7134            0.0000000000
     46302      7334  TIP3      H2             -0.8523507128       13.9427152839      -48.4906213802  TIP3      7134            0.0000000000
     46303      7335  TIP3      OH2           -18.4454461153       10.9980791750      -36.2852406518  TIP3      7135            0.0000000000
     46304      7335  TIP3      H1            -18.8425702452       10.9040439689      -37.1701994090  TIP3      7135            0.0000000000
     46305      7335  TIP3      H2            -18.0621214312       10.0935987490      -36.1926261435  TIP3      7135            0.0000000000
     46306      7336  TIP3      OH2           -18.7635751593       13.6040529973      -39.8376551985  TIP3      7136            0.0000000000
     46307      7336  TIP3      H1            -17.8029516096       13.4948152653      -39.8681872702  TIP3      7136            0.0000000000
     46308      7336  TIP3      H2            -18.8426099615       14.2959665597      -39.1686672815  TIP3      7136            0.0000000000
     46309      7337  TIP3      OH2            -0.7251266089       14.3585728354      -33.6921823161  TIP3      7137            0.0000000000
     46310      7337  TIP3      H1             -0.8361022801       13.4281442995      -33.9383205175  TIP3      7137            0.0000000000
     46311      7337  TIP3      H2             -1.6404247817       14.5527937845      -33.3589852290  TIP3      7137            0.0000000000
     46312      7338  TIP3      OH2            -9.8873058833       13.8154110137      -34.8613186868  TIP3      7138            0.0000000000
     46313      7338  TIP3      H1             -9.8230929594       14.6425063385      -34.3501724683  TIP3      7138            0.0000000000
     46314      7338  TIP3      H2            -10.8344845694       13.5596168301      -34.7617900284  TIP3      7138            0.0000000000
     46315      7339  TIP3      OH2            -9.4146694858       17.4886203167      -45.3260486537  TIP3      7139            0.0000000000
     46316      7339  TIP3      H1             -8.9663636566       17.8174025814      -46.1223131957  TIP3      7139            0.0000000000
     46317      7339  TIP3      H2             -9.3883293488       18.3167740430      -44.8058645609  TIP3      7139            0.0000000000
     46318      7340  TIP3      OH2           -15.6311897535       16.3247972714      -43.2111425594  TIP3      7140            0.0000000000
     46319      7340  TIP3      H1            -15.3240066888       16.0812554041      -42.3059054787  TIP3      7140            0.0000000000
     46320      7340  TIP3      H2            -16.5029306083       15.8798254572      -43.2124568006  TIP3      7140            0.0000000000
     46321      7341  TIP3      OH2            -6.4720513676       17.2660983726      -47.9556281255  TIP3      7141            0.0000000000
     46322      7341  TIP3      H1             -5.9951141778       16.4741396375      -48.2966024680  TIP3      7141            0.0000000000
     46323      7341  TIP3      H2             -6.1478959843       17.2645512680      -47.0387320353  TIP3      7141            0.0000000000
     46324      7342  TIP3      OH2            -6.7295606551       16.5732869308      -45.2505784505  TIP3      7142            0.0000000000
     46325      7342  TIP3      H1             -7.6421574383       16.7439844462      -44.9786990686  TIP3      7142            0.0000000000
     46326      7342  TIP3      H2             -6.5944287875       15.6670715446      -44.9205082663  TIP3      7142            0.0000000000
     46327      7343  TIP3      OH2            -3.8141506023        5.6444618106      -33.4109875408  TIP3      7143            0.0000000000
     46328      7343  TIP3      H1             -4.3216164723        5.9903015478      -34.1716870986  TIP3      7143            0.0000000000
     46329      7343  TIP3      H2             -3.7122701504        4.6951837058      -33.6436414913  TIP3      7143            0.0000000000
     46330      7344  TIP3      OH2           -16.2592580371       12.2977235074      -35.4221711489  TIP3      7144            0.0000000000
     46331      7344  TIP3      H1            -16.2554710424       11.8974322342      -34.5145252676  TIP3      7144            0.0000000000
     46332      7344  TIP3      H2            -17.1130115549       11.9320880136      -35.7491165018  TIP3      7144            0.0000000000
     46333      7345  TIP3      OH2           -13.6652302535        0.8641734179      -39.5065338166  TIP3      7145            0.0000000000
     46334      7345  TIP3      H1            -14.5498619179        0.8175643555      -39.9152257873  TIP3      7145            0.0000000000
     46335      7345  TIP3      H2            -13.9034233195        1.3239311139      -38.6752795043  TIP3      7145            0.0000000000
     46336      7346  TIP3      OH2            -8.7877626465        0.3197661994      -36.3626867910  TIP3      7146            0.0000000000
     46337      7346  TIP3      H1             -8.5444444254       -0.0777450921      -35.5087637139  TIP3      7146            0.0000000000
     46338      7346  TIP3      H2             -9.7784058629        0.3482303067      -36.3162396820  TIP3      7146            0.0000000000
     46339      7347  TIP3      OH2            -6.0604766423        4.3075814302      -35.2172806058  TIP3      7147            0.0000000000
     46340      7347  TIP3      H1             -6.6363945548        4.2207626244      -34.4190971322  TIP3      7147            0.0000000000
     46341      7347  TIP3      H2             -5.7997527801        5.2460628233      -35.2021666126  TIP3      7147            0.0000000000
     46342      7348  TIP3      OH2            -4.8513564362        9.2949829848      -48.6104211555  TIP3      7148            0.0000000000
     46343      7348  TIP3      H1             -5.2252038032        9.3772990617      -49.5350759965  TIP3      7148            0.0000000000
     46344      7348  TIP3      H2             -3.9146896224        9.4779687755      -48.8568411066  TIP3      7148            0.0000000000
     46345      7349  TIP3      OH2            -9.2284816141        3.1020929054      -48.5845062991  TIP3      7149            0.0000000000
     46346      7349  TIP3      H1             -9.6827054880        2.8363002415      -47.7531168626  TIP3      7149            0.0000000000
     46347      7349  TIP3      H2             -9.8543956082        2.7411765588      -49.2259320995  TIP3      7149            0.0000000000
     46348      7350  TIP3      OH2           -13.5961598467        5.3885531605      -38.1479768269  TIP3      7150            0.0000000000
     46349      7350  TIP3      H1            -14.3962274375        5.5305855405      -37.6035814028  TIP3      7150            0.0000000000
     46350      7350  TIP3      H2            -13.4788866603        6.2941557338      -38.5204254797  TIP3      7150            0.0000000000
     46351      7351  TIP3      OH2           -13.7369557230        5.4265009663      -43.4022658009  TIP3      7151            0.0000000000
     46352      7351  TIP3      H1            -14.6941578791        5.4768201404      -43.5839177210  TIP3      7151            0.0000000000
     46353      7351  TIP3      H2            -13.3507288735        5.3584315846      -44.3136757381  TIP3      7151            0.0000000000
     46354      7352  TIP3      OH2            -7.9650360055        6.5750269987      -44.2700912376  TIP3      7152            0.0000000000
     46355      7352  TIP3      H1             -8.3328774857        7.3532421647      -44.7492354499  TIP3      7152            0.0000000000
     46356      7352  TIP3      H2             -7.3775978853        6.2089653681      -44.9479877510  TIP3      7152            0.0000000000
     46357      7353  TIP3      OH2            -9.1536487116        6.5875805542      -33.1104212667  TIP3      7153            0.0000000000
     46358      7353  TIP3      H1             -9.5343371096        5.7887676542      -32.6910918834  TIP3      7153            0.0000000000
     46359      7353  TIP3      H2             -8.3911733494        6.7189609888      -32.5216411383  TIP3      7153            0.0000000000
     46360      7354  TIP3      OH2            -7.1719974500        5.8931161132      -41.4773452567  TIP3      7154            0.0000000000
     46361      7354  TIP3      H1             -7.1097024665        6.6386326546      -42.1117823466  TIP3      7154            0.0000000000
     46362      7354  TIP3      H2             -7.1356157201        5.1400261759      -42.0919831372  TIP3      7154            0.0000000000
     46363      7355  TIP3      OH2           -16.0182680340        5.7209833590      -36.9738349353  TIP3      7155            0.0000000000
     46364      7355  TIP3      H1            -15.7653468596        6.0848229235      -36.1108071263  TIP3      7155            0.0000000000
     46365      7355  TIP3      H2            -16.3634183945        4.8425577358      -36.7225288932  TIP3      7155            0.0000000000
     46366      7356  TIP3      OH2           -12.6618545384        3.2028085244      -49.4431920731  TIP3      7156            0.0000000000
     46367      7356  TIP3      H1            -13.1394098204        2.9109576975      -48.6448293810  TIP3      7156            0.0000000000
     46368      7356  TIP3      H2            -13.3631532056        3.4411248279      -50.0619321714  TIP3      7156            0.0000000000
     46369      7357  TIP3      OH2           -19.2661982730        2.8816197787      -42.3614196703  TIP3      7157            0.0000000000
     46370      7357  TIP3      H1            -18.5664016315        2.9416826542      -41.6990135101  TIP3      7157            0.0000000000
     46371      7357  TIP3      H2            -18.7751924675        2.8759929944      -43.1968091720  TIP3      7157            0.0000000000
     46372      7358  TIP3      OH2           -18.0664162974        3.6206622021      -47.1498798759  TIP3      7158            0.0000000000
     46373      7358  TIP3      H1            -17.3750016081        4.1805692483      -47.5747342712  TIP3      7158            0.0000000000
     46374      7358  TIP3      H2            -18.7094402087        4.3265846961      -46.9257881082  TIP3      7158            0.0000000000
     46375      7359  TIP3      OH2            -8.0814271806        7.3530244230      -37.2401529333  TIP3      7159            0.0000000000
     46376      7359  TIP3      H1             -7.4999303334        6.6701469913      -37.6375402677  TIP3      7159            0.0000000000
     46377      7359  TIP3      H2             -8.6124300883        6.7898413461      -36.6239207425  TIP3      7159            0.0000000000
     46378      7360  TIP3      OH2           -10.8580331242        3.2261747425      -42.2134146689  TIP3      7160            0.0000000000
     46379      7360  TIP3      H1            -11.8143955049        3.2398685753      -42.0525470524  TIP3      7160            0.0000000000
     46380      7360  TIP3      H2            -10.5064398909        2.9956049790      -41.3401884580  TIP3      7160            0.0000000000
     46381      7361  TIP3      OH2           -16.5295752711        4.8098409571      -43.3373418090  TIP3      7161            0.0000000000
     46382      7361  TIP3      H1            -17.2513133321        5.1306781330      -43.9217648121  TIP3      7161            0.0000000000
     46383      7361  TIP3      H2            -16.2591312422        3.9506307941      -43.7067839327  TIP3      7161            0.0000000000
     46384      7362  TIP3      OH2           -12.5164620677        5.0360583275      -45.7699039856  TIP3      7162            0.0000000000
     46385      7362  TIP3      H1            -11.5599655050        5.1366014811      -45.8469258061  TIP3      7162            0.0000000000
     46386      7362  TIP3      H2            -12.8822565354        5.6067778200      -46.4836643820  TIP3      7162            0.0000000000
     46387      7363  TIP3      OH2            -6.6723035856        2.5532771471      -39.4314368858  TIP3      7163            0.0000000000
     46388      7363  TIP3      H1             -7.2044244825        2.5661392087      -38.6146595093  TIP3      7163            0.0000000000
     46389      7363  TIP3      H2             -7.2097405796        1.9780651464      -40.0144786278  TIP3      7163            0.0000000000
     46390      7364  TIP3      OH2           -13.9395647170        6.2551695526      -47.7327450615  TIP3      7164            0.0000000000
     46391      7364  TIP3      H1            -14.7682748022        6.0376945580      -48.1831242001  TIP3      7164            0.0000000000
     46392      7364  TIP3      H2            -13.3063079702        6.3693638561      -48.4665093665  TIP3      7164            0.0000000000
     46393      7365  TIP3      OH2            -3.6489084719       18.3016594990      -32.5877280251  TIP3      7165            0.0000000000
     46394      7365  TIP3      H1             -3.3514954147       18.6447196670      -33.4444607263  TIP3      7165            0.0000000000
     46395      7365  TIP3      H2             -2.8779540514       18.5399309348      -32.0463650623  TIP3      7165            0.0000000000
     46396      7366  TIP3      OH2           -16.0856846520       10.7960088572      -33.1372981920  TIP3      7166            0.0000000000
     46397      7366  TIP3      H1            -15.3117256260       10.9356020701      -32.5532661456  TIP3      7166            0.0000000000
     46398      7366  TIP3      H2            -16.7990224789       10.6166608846      -32.4984909520  TIP3      7166            0.0000000000
     46399      7367  TIP3      OH2            -9.8992790407        5.9521337563      -40.5458117201  TIP3      7167            0.0000000000
     46400      7367  TIP3      H1             -9.1181516453        5.7340100422      -41.0782290473  TIP3      7167            0.0000000000
     46401      7367  TIP3      H2            -10.0450701317        5.1468155516      -40.0388279181  TIP3      7167            0.0000000000
     46402      7368  TIP3      OH2           -15.4116724589        2.0811846614      -44.0243225604  TIP3      7168            0.0000000000
     46403      7368  TIP3      H1            -15.9436871802        1.4071907259      -43.5437705010  TIP3      7168            0.0000000000
     46404      7368  TIP3      H2            -14.9669321858        1.5039023032      -44.6617005607  TIP3      7168            0.0000000000
     46405      7369  TIP3      OH2           -11.1970636019        4.2389767277      -38.0953723027  TIP3      7169            0.0000000000
     46406      7369  TIP3      H1            -12.0151228668        4.7805285325      -38.0945982636  TIP3      7169            0.0000000000
     46407      7369  TIP3      H2            -10.5737040509        4.7899383632      -37.5906486181  TIP3      7169            0.0000000000
     46408      7370  TIP3      OH2           -10.5672399378       10.9268461405      -46.1058124507  TIP3      7170            0.0000000000
     46409      7370  TIP3      H1            -11.2425253321       10.3300553081      -46.5050856189  TIP3      7170            0.0000000000
     46410      7370  TIP3      H2            -10.9784653351       11.0358213234      -45.2191055081  TIP3      7170            0.0000000000
     46411      7371  TIP3      OH2            -3.2052411702       10.1946843352      -37.4361371567  TIP3      7171            0.0000000000
     46412      7371  TIP3      H1             -2.7568822980       10.6952040094      -38.1622037587  TIP3      7171            0.0000000000
     46413      7371  TIP3      H2             -4.1056967631       10.1782872180      -37.7909303694  TIP3      7171            0.0000000000
     46414      7372  TIP3      OH2            -6.6876913284        3.5756445974      -48.0495302816  TIP3      7172            0.0000000000
     46415      7372  TIP3      H1             -7.6654683243        3.5849821304      -48.0989326709  TIP3      7172            0.0000000000
     46416      7372  TIP3      H2             -6.4906007680        4.4615424966      -47.6819958173  TIP3      7172            0.0000000000
     46417      7373  TIP3      OH2            -9.5299022086       11.1319082752      -35.1455782890  TIP3      7173            0.0000000000
     46418      7373  TIP3      H1             -9.5997086057       10.8036790809      -34.2416978833  TIP3      7173            0.0000000000
     46419      7373  TIP3      H2             -9.6249877829       12.0938653954      -35.0068305012  TIP3      7173            0.0000000000
     46420      7374  TIP3      OH2            -6.1538548084        5.6516897571      -46.5084076045  TIP3      7174            0.0000000000
     46421      7374  TIP3      H1             -5.3147692019        5.3949701954      -46.0648719717  TIP3      7174            0.0000000000
     46422      7374  TIP3      H2             -5.9636883714        6.5619482764      -46.7985937934  TIP3      7174            0.0000000000
     46423      7375  TIP3      OH2           -15.3699202006       10.1797864950      -40.5439513202  TIP3      7175            0.0000000000
     46424      7375  TIP3      H1            -14.7254550264        9.9636000217      -41.2491910557  TIP3      7175            0.0000000000
     46425      7375  TIP3      H2            -15.3954190602        9.3470299924      -40.0427009256  TIP3      7175            0.0000000000
     46426      7376  TIP3      OH2            -8.5810493243       12.4823089933      -47.2770867275  TIP3      7176            0.0000000000
     46427      7376  TIP3      H1             -9.0595351310       13.3424656646      -47.1851270085  TIP3      7176            0.0000000000
     46428      7376  TIP3      H2             -9.2406801943       11.8789383035      -46.8750093323  TIP3      7176            0.0000000000
     46429      7377  TIP3      OH2           -18.3101006647        8.1977814554      -35.2422570128  TIP3      7177            0.0000000000
     46430      7377  TIP3      H1            -18.5687535683        7.7159267393      -34.4293764388  TIP3      7177            0.0000000000
     46431      7377  TIP3      H2            -18.9190306797        7.8274757469      -35.9061936634  TIP3      7177            0.0000000000
     46432      7378  TIP3      OH2           -11.6462870582        8.1610010426      -33.3501646710  TIP3      7178            0.0000000000
     46433      7378  TIP3      H1            -12.1272762470        7.5008934485      -33.8758068765  TIP3      7178            0.0000000000
     46434      7378  TIP3      H2            -10.7240501086        7.8415843156      -33.4284559969  TIP3      7178            0.0000000000
     46435      7379  TIP3      OH2            -6.6219549978       13.4053682842      -34.8734779535  TIP3      7179            0.0000000000
     46436      7379  TIP3      H1             -7.4940948586       13.4635017643      -35.2830945215  TIP3      7179            0.0000000000
     46437      7379  TIP3      H2             -6.8249805057       13.8075977968      -34.0049309462  TIP3      7179            0.0000000000
     46438      7380  TIP3      OH2            -1.1493905225        5.5194677710      -46.4649827953  TIP3      7180            0.0000000000
     46439      7380  TIP3      H1             -1.8666483486        5.3671614458      -47.1087667196  TIP3      7180            0.0000000000
     46440      7380  TIP3      H2             -1.0334346420        6.4815884662      -46.5870028521  TIP3      7180            0.0000000000
     46441      7381  TIP3      OH2            -1.0203393675       11.4477322440      -34.1092795996  TIP3      7181            0.0000000000
     46442      7381  TIP3      H1             -1.9368541435       11.6003320053      -34.4479212638  TIP3      7181            0.0000000000
     46443      7381  TIP3      H2             -0.5235753841       11.3272635741      -34.9506559945  TIP3      7181            0.0000000000
     46444      7382  TIP3      OH2            -2.7540673174       13.9579902721      -46.1362860712  TIP3      7182            0.0000000000
     46445      7382  TIP3      H1             -3.6623906381       13.6221905271      -46.1415447551  TIP3      7182            0.0000000000
     46446      7382  TIP3      H2             -2.5524673540       14.0615560042      -47.0863481360  TIP3      7182            0.0000000000
     46447      7383  TIP3      OH2            -5.7360444110        9.1694369889      -39.3621013732  TIP3      7183            0.0000000000
     46448      7383  TIP3      H1             -6.6659176044        8.8991783359      -39.4738138100  TIP3      7183            0.0000000000
     46449      7383  TIP3      H2             -5.2958957159        8.4761951156      -39.8878755507  TIP3      7183            0.0000000000
     46450      7384  TIP3      OH2           -13.2436365853       13.4740124942      -42.9796372875  TIP3      7184            0.0000000000
     46451      7384  TIP3      H1            -12.8911076883       14.3661019573      -43.1678088406  TIP3      7184            0.0000000000
     46452      7384  TIP3      H2            -14.1558959359       13.5744213860      -43.2909465073  TIP3      7184            0.0000000000
     46453      7385  TIP3      OH2           -17.1517901283        8.2151592416      -48.9424026585  TIP3      7185            0.0000000000
     46454      7385  TIP3      H1            -16.6198097173        8.8052379085      -48.3773071744  TIP3      7185            0.0000000000
     46455      7385  TIP3      H2            -18.0257534935        8.2625461003      -48.5138423433  TIP3      7185            0.0000000000
     46456      7386  TIP3      OH2           -11.8492871995       11.2155530051      -43.6807018148  TIP3      7186            0.0000000000
     46457      7386  TIP3      H1            -12.3196355188       12.0555370576      -43.5044222710  TIP3      7186            0.0000000000
     46458      7386  TIP3      H2            -12.2947705049       10.5922986703      -43.0843149925  TIP3      7186            0.0000000000
     46459      7387  TIP3      OH2           -11.2207325607       15.3242426980      -36.8215389272  TIP3      7187            0.0000000000
     46460      7387  TIP3      H1            -10.6128801222       15.9576265413      -37.2536703450  TIP3      7187            0.0000000000
     46461      7387  TIP3      H2            -10.6280945846       14.8719562870      -36.1901599251  TIP3      7187            0.0000000000
     46462      7388  TIP3      OH2           -13.0366296594       16.1024892324      -44.1683581666  TIP3      7188            0.0000000000
     46463      7388  TIP3      H1            -13.9495680226       16.1968869323      -43.8254135577  TIP3      7188            0.0000000000
     46464      7388  TIP3      H2            -12.6247816130       16.9194883862      -43.8140234138  TIP3      7188            0.0000000000
     46465      7389  TIP3      OH2            -8.1061513000       11.2337538440      -37.4844655528  TIP3      7189            0.0000000000
     46466      7389  TIP3      H1             -8.6159543229       10.9932668765      -36.6727911880  TIP3      7189            0.0000000000
     46467      7389  TIP3      H2             -7.6204282323       10.4114242789      -37.6631467327  TIP3      7189            0.0000000000
     46468      7390  TIP3      OH2            -5.3115496778       12.4332860795      -48.5711622891  TIP3      7190            0.0000000000
     46469      7390  TIP3      H1             -5.2044399888       11.9847339731      -47.7043769522  TIP3      7190            0.0000000000
     46470      7390  TIP3      H2             -6.2724319157       12.3335759994      -48.6290031877  TIP3      7190            0.0000000000
     46471      7391  TIP3      OH2            -4.8461118813       15.7875488136      -35.2520780586  TIP3      7191            0.0000000000
     46472      7391  TIP3      H1             -5.7407513953       15.4064282332      -35.3745439402  TIP3      7191            0.0000000000
     46473      7391  TIP3      H2             -4.7772135534       16.4276175705      -35.9948215436  TIP3      7191            0.0000000000
     46474      7392  TIP3      OH2            -0.9027293655       16.8573448572      -48.1388696371  TIP3      7192            0.0000000000
     46475      7392  TIP3      H1             -0.2199229138       17.4951809504      -48.4398398655  TIP3      7192            0.0000000000
     46476      7392  TIP3      H2             -1.5036944913       17.4662766368      -47.6303836457  TIP3      7192            0.0000000000
     46477      7393  TIP3      OH2           -16.6078173375        3.1736768494      -35.7345216717  TIP3      7193            0.0000000000
     46478      7393  TIP3      H1            -17.2312836193        3.6495371067      -35.1509541169  TIP3      7193            0.0000000000
     46479      7393  TIP3      H2            -16.4873739085        2.3496113181      -35.2273663330  TIP3      7193            0.0000000000
     46480      7394  TIP3      OH2            -4.5933615884       11.0870784018      -46.3589068007  TIP3      7194            0.0000000000
     46481      7394  TIP3      H1             -4.5816689446       10.1207949892      -46.4174107065  TIP3      7194            0.0000000000
     46482      7394  TIP3      H2             -3.6296117438       11.2329537370      -46.4035995406  TIP3      7194            0.0000000000
     46483      7395  TIP3      OH2           -17.1719886892       15.0210986856      -37.4045525601  TIP3      7195            0.0000000000
     46484      7395  TIP3      H1            -16.5724887501       14.2746839271      -37.2721675472  TIP3      7195            0.0000000000
     46485      7395  TIP3      H2            -17.1505856871       15.4167781703      -36.5247553020  TIP3      7195            0.0000000000
     46486      7396  TIP3      OH2           -12.7539623602       12.9679840903      -47.3944006991  TIP3      7196            0.0000000000
     46487      7396  TIP3      H1            -11.9352920365       12.6893457345      -46.9519136193  TIP3      7196            0.0000000000
     46488      7396  TIP3      H2            -12.7209605991       13.9436598639      -47.2444266544  TIP3      7196            0.0000000000
     46489      7397  TIP3      OH2           -16.1224047276       10.2329824275      -47.1758007175  TIP3      7197            0.0000000000
     46490      7397  TIP3      H1            -16.8200963311       10.6986570474      -46.6621221503  TIP3      7197            0.0000000000
     46491      7397  TIP3      H2            -15.5289658853       10.9640370849      -47.4161254509  TIP3      7197            0.0000000000
     46492      7398  TIP3      OH2            -8.0931484642        3.2795132871      -36.9241262516  TIP3      7198            0.0000000000
     46493      7398  TIP3      H1             -7.4173239128        3.5561529163      -36.2732071384  TIP3      7198            0.0000000000
     46494      7398  TIP3      H2             -8.3755825315        2.4093878641      -36.5977732607  TIP3      7198            0.0000000000
     46495      7399  TIP3      OH2            -7.2284128713        2.1747089820      -45.4223658978  TIP3      7199            0.0000000000
     46496      7399  TIP3      H1             -6.9684728302        2.8252585067      -46.0964423854  TIP3      7199            0.0000000000
     46497      7399  TIP3      H2             -6.7339540456        2.4751027401      -44.6340246808  TIP3      7199            0.0000000000
     46498      7400  TIP3      OH2            -9.8191006730       14.8625618803      -47.1696301618  TIP3      7200            0.0000000000
     46499      7400  TIP3      H1            -10.4763543027       15.1533335126      -46.5195751666  TIP3      7200            0.0000000000
     46500      7400  TIP3      H2             -9.3026661968       15.6874376537      -47.2834356275  TIP3      7200            0.0000000000
     46501      7401  TIP3      OH2            -9.8724226770        4.3085412907      -44.5027289630  TIP3      7201            0.0000000000
     46502      7401  TIP3      H1             -9.3518670084        5.1234523454      -44.3843990960  TIP3      7201            0.0000000000
     46503      7401  TIP3      H2            -10.1696416189        4.0747465391      -43.5976956445  TIP3      7201            0.0000000000
     46504      7402  TIP3      OH2            -9.2905504651        5.5805339034      -35.6732002698  TIP3      7202            0.0000000000
     46505      7402  TIP3      H1             -9.2256388160        5.7902675243      -34.7117241263  TIP3      7202            0.0000000000
     46506      7402  TIP3      H2             -8.8699928619        4.7110397113      -35.7811588198  TIP3      7202            0.0000000000
     46507      7403  TIP3      OH2            -9.4800750946        1.0952774553      -44.1505162738  TIP3      7203            0.0000000000
     46508      7403  TIP3      H1             -9.9624800524        1.7746303481      -43.6482118969  TIP3      7203            0.0000000000
     46509      7403  TIP3      H2             -8.6752816341        1.5975049057      -44.4545902344  TIP3      7203            0.0000000000
     46510      7404  TIP3      OH2           -12.5638190951       15.6993965617      -46.9647209283  TIP3      7204            0.0000000000
     46511      7404  TIP3      H1            -12.0554360235       16.4678865851      -47.2291765807  TIP3      7204            0.0000000000
     46512      7404  TIP3      H2            -12.8267918622       15.9261580734      -46.0459882362  TIP3      7204            0.0000000000
     46513      7405  TIP3      OH2           -13.7475995739        2.3550116899      -46.9312157247  TIP3      7205            0.0000000000
     46514      7405  TIP3      H1            -13.7927194569        3.1602373963      -46.3938522586  TIP3      7205            0.0000000000
     46515      7405  TIP3      H2            -12.8034645051        2.1380366952      -46.8252220859  TIP3      7205            0.0000000000
     46516      7406  TIP3      OH2            -3.6456222532        3.1842566646      -34.4959914748  TIP3      7206            0.0000000000
     46517      7406  TIP3      H1             -4.5881474176        3.1917193334      -34.7754007181  TIP3      7206            0.0000000000
     46518      7406  TIP3      H2             -3.1978775889        3.3363153727      -35.3530387818  TIP3      7206            0.0000000000
     46519      7407  TIP3      OH2            -4.7114509695        6.7599327128      -40.7651215177  TIP3      7207            0.0000000000
     46520      7407  TIP3      H1             -5.5094372848        6.2081197822      -40.6681373806  TIP3      7207            0.0000000000
     46521      7407  TIP3      H2             -4.0564476293        6.2653549840      -40.2274688239  TIP3      7207            0.0000000000
     46522      7408  TIP3      OH2           -15.3105614294       12.9328476027      -48.2650728530  TIP3      7208            0.0000000000
     46523      7408  TIP3      H1            -14.3879769207       12.9268760603      -47.9087504656  TIP3      7208            0.0000000000
     46524      7408  TIP3      H2            -15.1648589267       12.5470908742      -49.1425091584  TIP3      7208            0.0000000000
     46525      7409  TIP3      OH2           -16.9820786751        5.5489636712      -48.6136839520  TIP3      7209            0.0000000000
     46526      7409  TIP3      H1            -16.9117104441        6.5308106977      -48.6555770573  TIP3      7209            0.0000000000
     46527      7409  TIP3      H2            -17.6071900243        5.3726321656      -49.3370336066  TIP3      7209            0.0000000000
     46528      7410  TIP3      OH2            -3.7957195501       16.2164944373      -39.2781536386  TIP3      7210            0.0000000000
     46529      7410  TIP3      H1             -3.8133214943       16.9154377654      -39.9712198892  TIP3      7210            0.0000000000
     46530      7410  TIP3      H2             -2.8202522338       16.1413215279      -39.2175320064  TIP3      7210            0.0000000000
     46531      7411  TIP3      OH2           -16.2530382697        0.2581316149      -40.1598219334  TIP3      7211            0.0000000000
     46532      7411  TIP3      H1            -16.2795304657        0.1430379876      -41.1349775431  TIP3      7211            0.0000000000
     46533      7411  TIP3      H2            -16.5574573112       -0.6333293244      -39.8697088508  TIP3      7211            0.0000000000
     46534      7412  TIP3      OH2           -17.5974679428       14.2901605913      -44.0951870316  TIP3      7212            0.0000000000
     46535      7412  TIP3      H1            -18.4341501114       14.7633660662      -44.1578747743  TIP3      7212            0.0000000000
     46536      7412  TIP3      H2            -17.1807020304       14.5834219057      -44.9207276875  TIP3      7212            0.0000000000
     46537      7413  TIP3      OH2           -18.2698957430       16.8105867037      -32.8833794528  TIP3      7213            0.0000000000
     46538      7413  TIP3      H1            -17.6320251833       16.7035723508      -32.1525191433  TIP3      7213            0.0000000000
     46539      7413  TIP3      H2            -18.5643960576       15.8927133484      -33.0529964164  TIP3      7213            0.0000000000
     46540      7414  TIP3      OH2           -13.3146891511       15.8648002452      -31.3613259673  TIP3      7214            0.0000000000
     46541      7414  TIP3      H1            -12.4688651847       15.4732881797      -31.0898993484  TIP3      7214            0.0000000000
     46542      7414  TIP3      H2            -13.4845049951       15.4487306900      -32.2210073410  TIP3      7214            0.0000000000
     46543      7415  TIP3      OH2            -9.4325948021       15.1140704954      -50.0983681728  TIP3      7215            0.0000000000
     46544      7415  TIP3      H1            -10.0215388371       14.4516221082      -49.7148398721  TIP3      7215            0.0000000000
     46545      7415  TIP3      H2             -8.6063893716       14.8566728250      -49.6477819399  TIP3      7215            0.0000000000
     46546      7416  TIP3      OH2            -7.0641103623       14.4840838342      -32.4515891242  TIP3      7216            0.0000000000
     46547      7416  TIP3      H1             -7.4161472415       13.6105938052      -32.1406644556  TIP3      7216            0.0000000000
     46548      7416  TIP3      H2             -6.2158660277       14.5254132539      -31.9493106268  TIP3      7216            0.0000000000
     46549      7417  TIP3      OH2            -5.2043484378       15.0271932617      -48.7985492669  TIP3      7217            0.0000000000
     46550      7417  TIP3      H1             -5.0759474163       14.0595521461      -48.8681918991  TIP3      7217            0.0000000000
     46551      7417  TIP3      H2             -4.7658675173       15.3917720345      -49.5959852306  TIP3      7217            0.0000000000
     46552      7418  TIP3      OH2           -18.5327774303       10.7653715860      -31.7620434682  TIP3      7218            0.0000000000
     46553      7418  TIP3      H1            -18.9959248511        9.9107557364      -31.6976888137  TIP3      7218            0.0000000000
     46554      7418  TIP3      H2            -18.8687893892       11.1150364672      -32.6240457255  TIP3      7218            0.0000000000
     46555      7419  TIP3      OH2           -13.3510642442       10.2709446282      -49.3695024630  TIP3      7219            0.0000000000
     46556      7419  TIP3      H1            -13.3172583682        9.9622071454      -48.4376562399  TIP3      7219            0.0000000000
     46557      7419  TIP3      H2            -12.5838878422       10.8640262481      -49.3268983910  TIP3      7219            0.0000000000
     46558      7420  TIP3      OH2           -11.6583919063       10.8066322247      -32.9115100306  TIP3      7220            0.0000000000
     46559      7420  TIP3      H1            -11.8166978384       11.2548475297      -33.7664170079  TIP3      7220            0.0000000000
     46560      7420  TIP3      H2            -11.7390232392        9.8443161391      -33.1358239335  TIP3      7220            0.0000000000
     46561      7421  TIP3      OH2            -5.9626903429       10.4987266133      -34.8916211930  TIP3      7221            0.0000000000
     46562      7421  TIP3      H1             -5.1058875028       10.9775050452      -34.8938565322  TIP3      7221            0.0000000000
     46563      7421  TIP3      H2             -6.5666887075       11.2610408831      -34.8361464407  TIP3      7221            0.0000000000
     46564      7422  TIP3      OH2           -17.0268279573        7.7245085427      -32.2472612054  TIP3      7222            0.0000000000
     46565      7422  TIP3      H1            -16.4836666540        6.9887007136      -31.9319944041  TIP3      7222            0.0000000000
     46566      7422  TIP3      H2            -16.8669913699        8.3873541687      -31.5413518385  TIP3      7222            0.0000000000
     46567      7423  TIP3      OH2           -12.4412118768        9.1308515313      -47.1004219729  TIP3      7223            0.0000000000
     46568      7423  TIP3      H1            -13.1771550170        8.6232329380      -46.7073589336  TIP3      7223            0.0000000000
     46569      7423  TIP3      H2            -12.0944507105        8.5156142001      -47.7793660680  TIP3      7223            0.0000000000
     46570      7424  TIP3      OH2           -13.5869067015        6.9307660579      -35.5100831703  TIP3      7224            0.0000000000
     46571      7424  TIP3      H1            -14.1841819627        7.6818921136      -35.7055193853  TIP3      7224            0.0000000000
     46572      7424  TIP3      H2            -12.8053180779        7.2241208747      -36.0156854598  TIP3      7224            0.0000000000
     46573      7425  TIP3      OH2           -11.2391522411        7.3660742036      -49.0330442720  TIP3      7225            0.0000000000
     46574      7425  TIP3      H1            -11.0830889872        7.0239577830      -49.9262396916  TIP3      7225            0.0000000000
     46575      7425  TIP3      H2            -10.3295209510        7.3888279777      -48.6631880583  TIP3      7225            0.0000000000
     46576      7426  TIP3      OH2            -8.0205014348        9.6908579418      -31.7134651002  TIP3      7226            0.0000000000
     46577      7426  TIP3      H1             -7.2984314800        9.2601469320      -32.2042267703  TIP3      7226            0.0000000000
     46578      7426  TIP3      H2             -8.2817305607        8.9892239982      -31.0880982572  TIP3      7226            0.0000000000
     46579      7427  TIP3      OH2            -2.5455754253        9.3262993526       50.1010338113  TIP3      7227            0.0000000000
     46580      7427  TIP3      H1             -1.9594202188        8.9481726530       49.4381725765  TIP3      7227            0.0000000000
     46581      7427  TIP3      H2             -2.1972984256       10.2481902087       50.0794201375  TIP3      7227            0.0000000000
     46582      7428  TIP3      OH2           -12.7402458509        4.4749513489      -34.6045634663  TIP3      7228            0.0000000000
     46583      7428  TIP3      H1            -12.7684861765        3.8000218397      -35.3253165802  TIP3      7228            0.0000000000
     46584      7428  TIP3      H2            -12.9146145509        5.3125324402      -35.0932015407  TIP3      7228            0.0000000000
     46585      7429  TIP3      OH2           -12.5419325042        2.4813991720      -36.5118714660  TIP3      7229            0.0000000000
     46586      7429  TIP3      H1            -12.0030085999        2.9650304825      -37.1789949575  TIP3      7229            0.0000000000
     46587      7429  TIP3      H2            -13.4239051374        2.5026044738      -36.9469025317  TIP3      7229            0.0000000000
     46588      7430  TIP3      OH2           -11.3282248034        8.3337231402      -36.5047736596  TIP3      7230            0.0000000000
     46589      7430  TIP3      H1            -10.4609399710        8.7102313267      -36.7058708451  TIP3      7230            0.0000000000
     46590      7430  TIP3      H2            -11.9052020305        9.0249048986      -36.8956139663  TIP3      7230            0.0000000000
     46591      7431  TIP3      OH2            -6.7796344214        5.6856737768      -31.5250241516  TIP3      7231            0.0000000000
     46592      7431  TIP3      H1             -6.3671001107        4.8215271515      -31.6468587086  TIP3      7231            0.0000000000
     46593      7431  TIP3      H2             -6.0529256017        6.2258181462      -31.1800495365  TIP3      7231            0.0000000000
     46594      7432  TIP3      OH2            -5.1047021313        8.8379407871      -32.8869302199  TIP3      7232            0.0000000000
     46595      7432  TIP3      H1             -5.5020611876        9.3687627351      -33.6116029453  TIP3      7232            0.0000000000
     46596      7432  TIP3      H2             -4.1589716413        8.8211213479      -33.1474874336  TIP3      7232            0.0000000000
     46597      7433  TIP3      OH2           -14.2030924276        5.0774788745      -32.3277248258  TIP3      7233            0.0000000000
     46598      7433  TIP3      H1            -15.0613390457        4.6436671098      -32.5334323294  TIP3      7233            0.0000000000
     46599      7433  TIP3      H2            -13.6446859183        4.7509660744      -33.0785085431  TIP3      7233            0.0000000000
     46600      7434  TIP3      OH2           -11.4955800359        0.0488924114      -36.5158078724  TIP3      7234            0.0000000000
     46601      7434  TIP3      H1            -11.9107851874        0.9333168489      -36.4279035459  TIP3      7234            0.0000000000
     46602      7434  TIP3      H2            -12.2516622266       -0.4458712934      -36.8489501208  TIP3      7234            0.0000000000
     46603      7435  TIP3      OH2           -10.5185938212        4.1762836934      -32.2406731286  TIP3      7235            0.0000000000
     46604      7435  TIP3      H1            -11.2182750823        3.9375353246      -31.5902898982  TIP3      7235            0.0000000000
     46605      7435  TIP3      H2            -11.0157042586        4.0651935116      -33.0720678014  TIP3      7235            0.0000000000
     46606      7436  TIP3      OH2            -7.8972900478        3.4977955437      -33.4005261473  TIP3      7236            0.0000000000
     46607      7436  TIP3      H1             -8.7565560756        3.6134721042      -32.9616326984  TIP3      7236            0.0000000000
     46608      7436  TIP3      H2             -7.4423051239        2.9393621353      -32.7307525094  TIP3      7236            0.0000000000
     46609      7437  TIP3      OH2            -6.4100505365        2.1194095615      -31.6146254906  TIP3      7237            0.0000000000
     46610      7437  TIP3      H1             -6.2604839403        1.1658535459      -31.4811741003  TIP3      7237            0.0000000000
     46611      7437  TIP3      H2             -6.5293101392        2.4231382142      -30.6890639435  TIP3      7237            0.0000000000
     46612      7438  TIP3      OH2           -16.4427960780        3.3557874404      -32.2370690436  TIP3      7238            0.0000000000
     46613      7438  TIP3      H1            -16.6497606260        2.5688229038      -32.7721341319  TIP3      7238            0.0000000000
     46614      7438  TIP3      H2            -16.6904414990        3.0667070364      -31.3208020276  TIP3      7238            0.0000000000
     46615      7439  TIP3      OH2           -11.7751473726       -0.2289074929      -33.6429665896  TIP3      7239            0.0000000000
     46616      7439  TIP3      H1            -11.0770920332       -0.8812950484      -33.4231127117  TIP3      7239            0.0000000000
     46617      7439  TIP3      H2            -11.7880176943       -0.3277617966      -34.6188779801  TIP3      7239            0.0000000000
     46618      7440  TIP3      OH2           -11.5563822900        0.9007186621      -30.9452466461  TIP3      7240            0.0000000000
     46619      7440  TIP3      H1            -11.6968794123        0.5597410527      -31.8567214195  TIP3      7240            0.0000000000
     46620      7440  TIP3      H2            -12.0684384187        1.7293954323      -30.9464309440  TIP3      7240            0.0000000000
     46621      7441  TIP3      OH2           -11.5915453648       18.3897494871      -48.3877065890  TIP3      7241            0.0000000000
     46622      7441  TIP3      H1            -10.7035670717       17.9907063992      -48.2351891805  TIP3      7241            0.0000000000
     46623      7441  TIP3      H2            -11.4634817014       19.2328656357      -47.8974882036  TIP3      7241            0.0000000000
     46624      7442  TIP3      OH2           -18.1387880728       12.9229868734      -48.3849725251  TIP3      7242            0.0000000000
     46625      7442  TIP3      H1            -17.1583943750       12.9444623186      -48.4774466413  TIP3      7242            0.0000000000
     46626      7442  TIP3      H2            -18.4224905210       12.3157307473      -49.1029112400  TIP3      7242            0.0000000000
     46627      7443  TIP3      OH2           -19.3243667563       17.6109211615      -43.8192290443  TIP3      7243            0.0000000000
     46628      7443  TIP3      H1            -20.1613692089       17.1655029757      -44.0982859252  TIP3      7243            0.0000000000
     46629      7443  TIP3      H2            -19.0828936442       17.1014831958      -43.0213126649  TIP3      7243            0.0000000000
     46630      7444  TIP3      OH2           -18.4894958097       15.9473505293      -41.7730003810  TIP3      7244            0.0000000000
     46631      7444  TIP3      H1            -18.9815519208       15.1493316188      -41.5074029542  TIP3      7244            0.0000000000
     46632      7444  TIP3      H2            -17.8722318709       16.1068852235      -41.0282126653  TIP3      7244            0.0000000000
     46633      7445  TIP3      OH2            -1.0694198687       16.7713766664      -39.1108685571  TIP3      7245            0.0000000000
     46634      7445  TIP3      H1             -0.7337774452       16.8482081123      -38.2010063499  TIP3      7245            0.0000000000
     46635      7445  TIP3      H2             -0.4644095606       17.3613078163      -39.5709445632  TIP3      7245            0.0000000000
     46636      7446  TIP3      OH2            -1.5914093016       16.3961973275      -36.1609533018  TIP3      7246            0.0000000000
     46637      7446  TIP3      H1             -1.9524069677       15.6323066931      -36.6639245981  TIP3      7246            0.0000000000
     46638      7446  TIP3      H2             -1.4507012945       15.9689487758      -35.2983517272  TIP3      7246            0.0000000000
     46639      7447  TIP3      OH2            -2.8760576023       12.0897418329      -31.0430426814  TIP3      7247            0.0000000000
     46640      7447  TIP3      H1             -3.7801372852       12.2298342959      -30.6951136048  TIP3      7247            0.0000000000
     46641      7447  TIP3      H2             -2.4880752142       12.9846887503      -30.9520817365  TIP3      7247            0.0000000000
     46642      7448  TIP3      OH2            -1.9211142786       10.6356905850      -46.1937193728  TIP3      7248            0.0000000000
     46643      7448  TIP3      H1             -1.0432106576       11.0157518050      -45.9809233980  TIP3      7248            0.0000000000
     46644      7448  TIP3      H2             -2.0921479046       10.1100773709      -45.4002454398  TIP3      7248            0.0000000000
     46645      7449  TIP3      OH2            -1.3307506815        8.6508376286      -43.7916376453  TIP3      7249            0.0000000000
     46646      7449  TIP3      H1             -2.1561764688        8.1763414237      -43.5434759337  TIP3      7249            0.0000000000
     46647      7449  TIP3      H2             -0.8301510653        8.6713706808      -42.9479847788  TIP3      7249            0.0000000000
     46648      7450  TIP3      OH2            -1.7398102804       11.2896921557      -39.2967810301  TIP3      7250            0.0000000000
     46649      7450  TIP3      H1             -1.0820803742       10.5579428741      -39.3407099267  TIP3      7250            0.0000000000
     46650      7450  TIP3      H2             -1.2487531814       12.0491225906      -39.6690959052  TIP3      7250            0.0000000000
     46651      7451  TIP3      OH2            -2.9168627199       14.1028290516      -36.7830190634  TIP3      7251            0.0000000000
     46652      7451  TIP3      H1             -3.6090025783       14.5121902960      -36.2409044924  TIP3      7251            0.0000000000
     46653      7451  TIP3      H2             -3.4002993446       13.8427007513      -37.6012537196  TIP3      7251            0.0000000000
     46654      7452  TIP3      OH2            -0.9097747905        8.4552423730      -47.7121496466  TIP3      7252            0.0000000000
     46655      7452  TIP3      H1             -1.6432963743        8.6389758584      -48.3314853750  TIP3      7252            0.0000000000
     46656      7452  TIP3      H2             -0.9605014955        9.2516516009      -47.1501504603  TIP3      7252            0.0000000000
     46657      7453  TIP3      OH2            -3.1270575700        5.3188784295      -48.4367531210  TIP3      7253            0.0000000000
     46658      7453  TIP3      H1             -3.3478286392        5.9417946849      -49.1583760067  TIP3      7253            0.0000000000
     46659      7453  TIP3      H2             -2.4586086841        4.8003308782      -48.9150959349  TIP3      7253            0.0000000000
     46660      7454  TIP3      OH2            -3.3938110554        7.0914437274      -43.1344631526  TIP3      7254            0.0000000000
     46661      7454  TIP3      H1             -3.5624269086        6.1685418087      -43.3573021135  TIP3      7254            0.0000000000
     46662      7454  TIP3      H2             -3.7105497945        7.1132842297      -42.2051860569  TIP3      7254            0.0000000000
     46663      7455  TIP3      OH2           -18.5967083844        9.4362333869      -39.1806562134  TIP3      7255            0.0000000000
     46664      7455  TIP3      H1            -18.4832156577        9.1505648796      -40.1197717706  TIP3      7255            0.0000000000
     46665      7455  TIP3      H2            -17.7259132066        9.1267017812      -38.8360511200  TIP3      7255            0.0000000000
     46666      7456  TIP3      OH2            -2.4020788715        9.1258628361      -33.7336636432  TIP3      7256            0.0000000000
     46667      7456  TIP3      H1             -1.9464045463        8.2603968549      -33.5956501251  TIP3      7256            0.0000000000
     46668      7456  TIP3      H2             -1.6711077220        9.7426133577      -33.9379717389  TIP3      7256            0.0000000000
     46669      7457  TIP3      OH2            -1.4245838274        6.7163980887      -33.3446765831  TIP3      7257            0.0000000000
     46670      7457  TIP3      H1             -2.3159731196        6.3006260351      -33.2678651991  TIP3      7257            0.0000000000
     46671      7457  TIP3      H2             -0.8265039728        5.9473480662      -33.1999221715  TIP3      7257            0.0000000000
     46672      7458  TIP3      OH2            -3.3656122222        2.9758039246      -50.1346675417  TIP3      7258            0.0000000000
     46673      7458  TIP3      H1             -2.8284348853        2.6074964956      -49.4055583233  TIP3      7258            0.0000000000
     46674      7458  TIP3      H2             -4.2502199449        2.8664157159      -49.7882506544  TIP3      7258            0.0000000000
     46675      7459  TIP3      OH2            -4.0504723351        4.7446988678      -45.0791570601  TIP3      7259            0.0000000000
     46676      7459  TIP3      H1             -3.7796943878        3.8652102261      -44.7250639809  TIP3      7259            0.0000000000
     46677      7459  TIP3      H2             -3.2282058142        4.9659655534      -45.5319882933  TIP3      7259            0.0000000000
     46678      7460  TIP3      OH2            -2.9283875184        5.2506281143      -39.3261426222  TIP3      7260            0.0000000000
     46679      7460  TIP3      H1             -1.9570821752        5.4220864862      -39.2210121655  TIP3      7260            0.0000000000
     46680      7460  TIP3      H2             -3.2042175992        5.3052137867      -38.3973887411  TIP3      7260            0.0000000000
     46681      7461  TIP3      OH2            -2.9370051092        6.0497814866      -36.7164180060  TIP3      7261            0.0000000000
     46682      7461  TIP3      H1             -3.8156126824        6.3122827738      -36.3917592682  TIP3      7261            0.0000000000
     46683      7461  TIP3      H2             -2.5149443665        6.9202072269      -36.9231472820  TIP3      7261            0.0000000000
     46684      7462  TIP3      OH2           -18.6101269848        4.2959053917      -33.3454774527  TIP3      7262            0.0000000000
     46685      7462  TIP3      H1            -17.7639332906        4.2115525776      -32.8585069264  TIP3      7262            0.0000000000
     46686      7462  TIP3      H2            -19.0247682383        3.4171201904      -33.1760459563  TIP3      7262            0.0000000000
     46687      7463  TIP3      OH2            -0.7383496356        0.2556834297      -31.5039852430  TIP3      7263            0.0000000000
     46688      7463  TIP3      H1             -0.3848500094       -0.4708343653      -32.0555288997  TIP3      7263            0.0000000000
     46689      7463  TIP3      H2             -0.8904052798        0.9633413848      -32.1826569934  TIP3      7263            0.0000000000
     46690      7464  TIP3      OH2            -3.0360172213        2.2666709236      -44.6421155719  TIP3      7264            0.0000000000
     46691      7464  TIP3      H1             -2.6882593152        1.7567315858      -43.8782257509  TIP3      7264            0.0000000000
     46692      7464  TIP3      H2             -3.5829398163        1.5777141729      -45.0635160301  TIP3      7264            0.0000000000
     46693      7465  TIP3      OH2           -17.6889388747        2.6689531356      -39.6913848460  TIP3      7265            0.0000000000
     46694      7465  TIP3      H1            -17.2852229144        1.7799152013      -39.7365084792  TIP3      7265            0.0000000000
     46695      7465  TIP3      H2            -16.9543800005        3.2702970959      -39.9204156770  TIP3      7265            0.0000000000
     46696      7466  TIP3      OH2           -19.2554415488        5.8163666965      -39.1955244433  TIP3      7266            0.0000000000
     46697      7466  TIP3      H1            -18.6833339486        5.5384392602      -39.9405459555  TIP3      7266            0.0000000000
     46698      7466  TIP3      H2            -18.7344614668        6.5722506969      -38.9003858208  TIP3      7266            0.0000000000
     46699      7467  TIP3      OH2            -1.5556903825        2.0301206662      -33.2541564355  TIP3      7267            0.0000000000
     46700      7467  TIP3      H1             -2.4207386144        2.4769782581      -33.3823541197  TIP3      7267            0.0000000000
     46701      7467  TIP3      H2             -1.5934397573        1.4064685774      -34.0034499402  TIP3      7267            0.0000000000
     46702      7468  TIP3      OH2            -1.2719303117        2.2723949938      -48.2235318835  TIP3      7268            0.0000000000
     46703      7468  TIP3      H1             -0.8397218277        1.7555859067      -48.9121492494  TIP3      7268            0.0000000000
     46704      7468  TIP3      H2             -0.5243059145        2.8599631707      -47.9621564686  TIP3      7268            0.0000000000
     46705      7469  TIP3      OH2           -19.0078082676        1.9720201796      -45.1836448938  TIP3      7269            0.0000000000
     46706      7469  TIP3      H1            -19.9198756858        2.2619542710      -45.0870466705  TIP3      7269            0.0000000000
     46707      7469  TIP3      H2            -18.7682103001        2.3734167611      -46.0422751829  TIP3      7269            0.0000000000
     46708      7470  TIP3      OH2            -4.2023137956       16.8836234990      -43.1381179193  TIP3      7270            0.0000000000
     46709      7470  TIP3      H1             -3.5397501330       16.7446280511      -43.8447422457  TIP3      7270            0.0000000000
     46710      7470  TIP3      H2             -3.7606239517       17.5067128836      -42.5272617746  TIP3      7270            0.0000000000
     46711      7471  TIP3      OH2           -19.0172100722        0.5342902594      -36.8936749135  TIP3      7271            0.0000000000
     46712      7471  TIP3      H1            -19.6817454799        0.2894538581      -36.2168697768  TIP3      7271            0.0000000000
     46713      7471  TIP3      H2            -19.4609020772        1.2516280807      -37.3602868983  TIP3      7271            0.0000000000
     46714      7472  TIP3      OH2           -16.7673683949       13.7841454244      -32.9281342918  TIP3      7272            0.0000000000
     46715      7472  TIP3      H1            -17.6448749565       14.0893164580      -33.2201299984  TIP3      7272            0.0000000000
     46716      7472  TIP3      H2            -16.9280203084       13.3363689285      -32.0983476087  TIP3      7272            0.0000000000
     46717      7473  TIP3      OH2           -13.8377448449       15.3246881694      -36.2110959174  TIP3      7273            0.0000000000
     46718      7473  TIP3      H1            -13.8067063731       16.2146658311      -36.6190560759  TIP3      7273            0.0000000000
     46719      7473  TIP3      H2            -12.8917532416       15.0897156624      -36.2709826423  TIP3      7273            0.0000000000
     46720      7474  TIP3      OH2            -9.7545576932       16.4428633008      -33.7851864497  TIP3      7274            0.0000000000
     46721      7474  TIP3      H1             -9.6702424016       16.3115921996      -32.8230884891  TIP3      7274            0.0000000000
     46722      7474  TIP3      H2             -8.8714417527       16.8245526842      -33.9895615092  TIP3      7274            0.0000000000
     46723      7475  TIP3      OH2            -7.6277528108       18.0796347870      -34.1604401353  TIP3      7275            0.0000000000
     46724      7475  TIP3      H1             -6.8989092773       17.7404518331      -34.6984819227  TIP3      7275            0.0000000000
     46725      7475  TIP3      H2             -7.1795666801       18.2816861200      -33.3041822486  TIP3      7275            0.0000000000
     46726      7476  TIP3      OH2            -2.2017144321       -0.0423210100      -34.9608194012  TIP3      7276            0.0000000000
     46727      7476  TIP3      H1             -2.8150336284        0.2986096145      -35.6236758230  TIP3      7276            0.0000000000
     46728      7476  TIP3      H2             -2.1274311591       -0.9788216633      -35.2508657263  TIP3      7276            0.0000000000
     46729      7477  TIP3      OH2           -16.5763849281       18.1984728469      -36.4777716030  TIP3      7277            0.0000000000
     46730      7477  TIP3      H1            -17.3376408840       18.7999540888      -36.6479434531  TIP3      7277            0.0000000000
     46731      7477  TIP3      H2            -16.5408124615       18.1842354842      -35.5071376994  TIP3      7277            0.0000000000
     46732      7478  TIP3      OH2           -14.2464275845       17.7379823363      -37.5463455208  TIP3      7278            0.0000000000
     46733      7478  TIP3      H1            -15.1769027846       17.8679708216      -37.2421488782  TIP3      7278            0.0000000000
     46734      7478  TIP3      H2            -14.2254424544       18.2834629549      -38.3484536439  TIP3      7278            0.0000000000
     46735      7479  TIP3      OH2            -9.6213752137       17.3267557594      -38.2897208962  TIP3      7279            0.0000000000
     46736      7479  TIP3      H1            -10.3084725579       17.8909594155      -38.6777165086  TIP3      7279            0.0000000000
     46737      7479  TIP3      H2             -9.2309231467       17.9468491229      -37.6362337323  TIP3      7279            0.0000000000
     46738      7480  TIP3      OH2            -7.2776723987       16.0883288826      -36.8170215732  TIP3      7280            0.0000000000
     46739      7480  TIP3      H1             -7.9206796134       16.4315790134      -37.4514258130  TIP3      7280            0.0000000000
     46740      7480  TIP3      H2             -6.4973279407       16.6362989597      -37.0332174864  TIP3      7280            0.0000000000
     46741      7481  TIP3      OH2            -4.6503627989       17.6201268301      -37.2275504780  TIP3      7281            0.0000000000
     46742      7481  TIP3      H1             -4.4002519186       18.5014669333      -37.5532696704  TIP3      7281            0.0000000000
     46743      7481  TIP3      H2             -4.3467104547       17.0967880084      -38.0079957575  TIP3      7281            0.0000000000
     46744      7482  TIP3      OH2           -17.0052800550       16.5411132863      -39.5953501903  TIP3      7282            0.0000000000
     46745      7482  TIP3      H1            -17.1739753579       15.9769993816      -38.8027533558  TIP3      7282            0.0000000000
     46746      7482  TIP3      H2            -16.0976238944       16.2308839960      -39.8281388834  TIP3      7282            0.0000000000
     46747      7483  TIP3      OH2           -14.7768242166       15.5978859455      -40.8287965044  TIP3      7283            0.0000000000
     46748      7483  TIP3      H1            -14.8916564584       14.6443888701      -40.6358052837  TIP3      7283            0.0000000000
     46749      7483  TIP3      H2            -13.9080761785       15.7367449281      -40.3871083467  TIP3      7283            0.0000000000
     46750      7484  TIP3      OH2           -12.5857658084       15.4210530414      -39.4151622282  TIP3      7284            0.0000000000
     46751      7484  TIP3      H1            -12.2742837518       14.5253470374      -39.6670832732  TIP3      7284            0.0000000000
     46752      7484  TIP3      H2            -12.2345992799       15.5138950925      -38.5131216739  TIP3      7284            0.0000000000
     46753      7485  TIP3      OH2            -8.7517116665        1.4053235722      -40.7413702790  TIP3      7285            0.0000000000
     46754      7485  TIP3      H1             -9.5987907825        1.1994442344      -40.3255946788  TIP3      7285            0.0000000000
     46755      7485  TIP3      H2             -8.6761450277        0.7004113542      -41.3944287384  TIP3      7285            0.0000000000
     46756      7486  TIP3      OH2            -3.6671900841       -0.4659424051      -40.9674027862  TIP3      7286            0.0000000000
     46757      7486  TIP3      H1             -3.0383540659        0.1225903724      -41.4489541771  TIP3      7286            0.0000000000
     46758      7486  TIP3      H2             -4.5323445682       -0.2196063319      -41.3780683184  TIP3      7286            0.0000000000
     46759      7487  TIP3      OH2            -1.9719163916        0.7474659668      -42.6816780318  TIP3      7287            0.0000000000
     46760      7487  TIP3      H1             -1.3073831691        0.1823044136      -43.1378940080  TIP3      7287            0.0000000000
     46761      7487  TIP3      H2             -1.4282202565        1.5434973424      -42.4497528016  TIP3      7287            0.0000000000
     46762      7488  TIP3      OH2           -16.4463372106       -0.1125067144      -42.9381264905  TIP3      7288            0.0000000000
     46763      7488  TIP3      H1            -17.3085422886       -0.1907362492      -43.3787046198  TIP3      7288            0.0000000000
     46764      7488  TIP3      H2            -16.0642602730       -0.9978613149      -43.1244962898  TIP3      7288            0.0000000000
     46765      7489  TIP3      OH2           -17.7531839811       -0.1430560081      -47.2645421220  TIP3      7289            0.0000000000
     46766      7489  TIP3      H1            -17.1840172852        0.5165609199      -47.7360293747  TIP3      7289            0.0000000000
     46767      7489  TIP3      H2            -18.1553214763        0.3855222457      -46.5548266984  TIP3      7289            0.0000000000
     46768      7490  TIP3      OH2           -12.1285572914       -0.6027618679      -43.1161203742  TIP3      7290            0.0000000000
     46769      7490  TIP3      H1            -11.3881490561       -0.2258781196      -43.6022457647  TIP3      7290            0.0000000000
     46770      7490  TIP3      H2            -11.9560269072       -0.3195316823      -42.2017241052  TIP3      7290            0.0000000000
     46771      7491  TIP3      OH2            -6.1457718775        0.0290045815      -42.0139086494  TIP3      7291            0.0000000000
     46772      7491  TIP3      H1             -6.6267472924        0.1260065145      -42.8397647838  TIP3      7291            0.0000000000
     46773      7491  TIP3      H2             -6.6737667394       -0.6568623203      -41.5421643168  TIP3      7291            0.0000000000
     46774      7492  TIP3      OH2            -4.8270014859       -0.0223080147      -45.7323474818  TIP3      7292            0.0000000000
     46775      7492  TIP3      H1             -5.6398130926        0.4783300620      -45.8775355460  TIP3      7292            0.0000000000
     46776      7492  TIP3      H2             -5.1863115467       -0.8019324409      -45.2579601873  TIP3      7292            0.0000000000
     46777      7493  TIP3      OH2           -17.8708841779       15.9031793791      -46.4051471922  TIP3      7293            0.0000000000
     46778      7493  TIP3      H1            -18.7765783205       15.9055910739      -46.7659443390  TIP3      7293            0.0000000000
     46779      7493  TIP3      H2            -17.8621627726       16.8089703811      -46.0697970979  TIP3      7293            0.0000000000
     46780      7494  TIP3      OH2           -16.1143189166        1.3230373851      -48.7524381815  TIP3      7294            0.0000000000
     46781      7494  TIP3      H1            -15.3417976137        0.7375370855      -48.7979686142  TIP3      7294            0.0000000000
     46782      7494  TIP3      H2            -15.7688456110        2.1076802113      -48.3114026907  TIP3      7294            0.0000000000
     46783      7495  TIP3      OH2           -10.6901557139        2.3457161387      -46.3696329801  TIP3      7295            0.0000000000
     46784      7495  TIP3      H1            -10.2750692509        1.7716453891      -45.7044636899  TIP3      7295            0.0000000000
     46785      7495  TIP3      H2            -10.5619199802        3.1991391742      -45.8975384808  TIP3      7295            0.0000000000
     46786      7496  TIP3      OH2            -9.0680236736       17.2225283881      -48.2093424690  TIP3      7296            0.0000000000
     46787      7496  TIP3      H1             -8.0843333241       17.3974309266      -48.1674985056  TIP3      7296            0.0000000000
     46788      7496  TIP3      H2             -9.0650013575       16.7307383584      -49.0535827930  TIP3      7296            0.0000000000
     46789      7497  TIP3      OH2            -2.5097370257       16.4009775036      -45.0194050330  TIP3      7297            0.0000000000
     46790      7497  TIP3      H1             -2.6056478189       15.4917382401      -45.3871384036  TIP3      7297            0.0000000000
     46791      7497  TIP3      H2             -2.6739665582       16.9522720704      -45.8071646906  TIP3      7297            0.0000000000
     46792      7498  TIP3      OH2           -16.8863047536        0.8279113284      -33.6260276721  TIP3      7298            0.0000000000
     46793      7498  TIP3      H1            -17.3736884753       -0.0196794418      -33.5876006177  TIP3      7298            0.0000000000
     46794      7498  TIP3      H2            -16.1782048733        0.6838502457      -32.9621346190  TIP3      7298            0.0000000000
     46795      7499  TIP3      OH2           -14.8838235751        0.1003889579      -31.7243667827  TIP3      7299            0.0000000000
     46796      7499  TIP3      H1            -13.9552211684       -0.0141638660      -32.0055600319  TIP3      7299            0.0000000000
     46797      7499  TIP3      H2            -15.0805908547       -0.8310980040      -31.5089014642  TIP3      7299            0.0000000000
     46798      7500  TIP3      OH2           -15.6360761262       16.7910193804      -48.4100172182  TIP3      7300            0.0000000000
     46799      7500  TIP3      H1            -16.2659511474       17.4041978624      -47.9728719406  TIP3      7300            0.0000000000
     46800      7500  TIP3      H2            -15.8901573623       15.9637614839      -47.9599741450  TIP3      7300            0.0000000000
     46801      7501  TIP3      OH2            -6.1976968178       -0.7151412123      -31.3751576494  TIP3      7301            0.0000000000
     46802      7501  TIP3      H1             -6.2030883420       -1.6647944085      -31.1974944854  TIP3      7301            0.0000000000
     46803      7501  TIP3      H2             -5.4372921135       -0.6879032211      -31.9923790152  TIP3      7301            0.0000000000
     46804      7502  TIP3      OH2            -3.0480588625       15.4671790770      -33.3771312581  TIP3      7302            0.0000000000
     46805      7502  TIP3      H1             -3.7668008280       15.3938317015      -34.0445872133  TIP3      7302            0.0000000000
     46806      7502  TIP3      H2             -3.2408229046       16.3380994772      -33.0039121402  TIP3      7302            0.0000000000
     46807      7503  TIP3      OH2            11.5114185160        9.4978441800      -43.1269912134  TIP3      7303            0.0000000000
     46808      7503  TIP3      H1             11.4160995213       10.4092523771      -42.7953210281  TIP3      7303            0.0000000000
     46809      7503  TIP3      H2             10.9150396130        9.5418020607      -43.8952430119  TIP3      7303            0.0000000000
     46810      7504  TIP3      OH2            10.5225272692        8.1370434559      -39.7377709873  TIP3      7304            0.0000000000
     46811      7504  TIP3      H1             10.3952414167        7.8111954570      -38.8189308589  TIP3      7304            0.0000000000
     46812      7504  TIP3      H2              9.8101350613        7.6871847298      -40.2315251025  TIP3      7304            0.0000000000
     46813      7505  TIP3      OH2             2.2545062929        8.1109779253      -38.2076913286  TIP3      7305            0.0000000000
     46814      7505  TIP3      H1              2.3956620288        7.4189641206      -37.5311907484  TIP3      7305            0.0000000000
     46815      7505  TIP3      H2              3.0993010825        8.5870085124      -38.1763600635  TIP3      7305            0.0000000000
     46816      7506  TIP3      OH2            13.4438903623       11.3584005059      -41.2355195007  TIP3      7306            0.0000000000
     46817      7506  TIP3      H1             13.3059005660       10.6396273579      -40.5937601647  TIP3      7306            0.0000000000
     46818      7506  TIP3      H2             13.7455956619       12.0599115708      -40.6431459979  TIP3      7306            0.0000000000
     46819      7507  TIP3      OH2             3.5065343557       12.8680477792      -40.0395001907  TIP3      7307            0.0000000000
     46820      7507  TIP3      H1              3.2111890754       11.9373817800      -40.1436528216  TIP3      7307            0.0000000000
     46821      7507  TIP3      H2              4.4573406174       12.7032791701      -40.1830905330  TIP3      7307            0.0000000000
     46822      7508  TIP3      OH2             0.2272010271        6.1287015113      -44.1815995162  TIP3      7308            0.0000000000
     46823      7508  TIP3      H1             -0.1850863356        7.0043459746      -44.0798703169  TIP3      7308            0.0000000000
     46824      7508  TIP3      H2             -0.3259323049        5.7640582948      -44.8988712226  TIP3      7308            0.0000000000
     46825      7509  TIP3      OH2             0.7393474577        8.6048987330      -41.7137962804  TIP3      7309            0.0000000000
     46826      7509  TIP3      H1              1.1668870907        7.7230207066      -41.5982363713  TIP3      7309            0.0000000000
     46827      7509  TIP3      H2              1.3475425288        9.0799877863      -42.2914994829  TIP3      7309            0.0000000000
     46828      7510  TIP3      OH2            11.1517206394       16.9008179353      -41.3922793884  TIP3      7310            0.0000000000
     46829      7510  TIP3      H1             11.8385626570       16.2843605757      -41.7418543980  TIP3      7310            0.0000000000
     46830      7510  TIP3      H2             10.6850628012       16.2913494087      -40.8123486706  TIP3      7310            0.0000000000
     46831      7511  TIP3      OH2             8.4548467367       10.9367317389      -38.7954422125  TIP3      7311            0.0000000000
     46832      7511  TIP3      H1              8.7078404894       10.4930601194      -39.6177977632  TIP3      7311            0.0000000000
     46833      7511  TIP3      H2              9.3473514957       11.2052099089      -38.4738273260  TIP3      7311            0.0000000000
     46834      7512  TIP3      OH2            17.2084321784        2.4585590633      -38.8265180065  TIP3      7312            0.0000000000
     46835      7512  TIP3      H1             17.2770124283        3.0318901133      -38.0378896751  TIP3      7312            0.0000000000
     46836      7512  TIP3      H2             18.0274113376        2.7002865817      -39.2895377742  TIP3      7312            0.0000000000
     46837      7513  TIP3      OH2            12.1771378452        5.5406235305      -38.6348717063  TIP3      7313            0.0000000000
     46838      7513  TIP3      H1             12.3877333249        4.5982764580      -38.5491917643  TIP3      7313            0.0000000000
     46839      7513  TIP3      H2             11.8506140714        5.5612033378      -39.5587194781  TIP3      7313            0.0000000000
     46840      7514  TIP3      OH2             4.9500255487        3.1327916263      -42.0255669771  TIP3      7314            0.0000000000
     46841      7514  TIP3      H1              5.1139164857        3.9402491505      -42.5664340284  TIP3      7314            0.0000000000
     46842      7514  TIP3      H2              4.4563630041        2.6048586155      -42.6818179614  TIP3      7314            0.0000000000
     46843      7515  TIP3      OH2            12.5008223671        3.5793422037      -43.2411968611  TIP3      7315            0.0000000000
     46844      7515  TIP3      H1             13.0447809821        3.1915723159      -42.5072715477  TIP3      7315            0.0000000000
     46845      7515  TIP3      H2             13.1360350627        4.1934214060      -43.6399570775  TIP3      7315            0.0000000000
     46846      7516  TIP3      OH2             1.3913730412        6.0189482761      -41.0599620677  TIP3      7316            0.0000000000
     46847      7516  TIP3      H1              2.0121982491        5.5086562516      -40.5158724209  TIP3      7316            0.0000000000
     46848      7516  TIP3      H2              1.6132300577        5.6669859487      -41.9408492439  TIP3      7316            0.0000000000
     46849      7517  TIP3      OH2             6.4588148108        7.4573647676      -41.3809493710  TIP3      7317            0.0000000000
     46850      7517  TIP3      H1              7.3723832026        7.1490171287      -41.1861961002  TIP3      7317            0.0000000000
     46851      7517  TIP3      H2              6.1096922380        6.6687607256      -41.8285852410  TIP3      7317            0.0000000000
     46852      7518  TIP3      OH2            17.2907426051        3.8790661661      -36.3999964655  TIP3      7318            0.0000000000
     46853      7518  TIP3      H1             16.8878018020        4.7095596167      -36.7459050114  TIP3      7318            0.0000000000
     46854      7518  TIP3      H2             17.5163477299        4.1735379378      -35.5025804415  TIP3      7318            0.0000000000
     46855      7519  TIP3      OH2             4.0877718719        2.4194112426      -37.8537385623  TIP3      7319            0.0000000000
     46856      7519  TIP3      H1              3.5653799772        2.8816159082      -38.5433643257  TIP3      7319            0.0000000000
     46857      7519  TIP3      H2              3.5024748938        2.5840555589      -37.0856530550  TIP3      7319            0.0000000000
     46858      7520  TIP3      OH2            10.8253690277       12.0853051172      -44.1250776255  TIP3      7320            0.0000000000
     46859      7520  TIP3      H1             10.7644269432       11.9841344241      -45.1081587058  TIP3      7320            0.0000000000
     46860      7520  TIP3      H2             10.5478182497       13.0083505876      -44.0524312437  TIP3      7320            0.0000000000
     46861      7521  TIP3      OH2             6.0518610736       10.1257006523      -38.0672602381  TIP3      7321            0.0000000000
     46862      7521  TIP3      H1              5.5853294273       10.8739757856      -37.6283884192  TIP3      7321            0.0000000000
     46863      7521  TIP3      H2              6.8947073882       10.5545361077      -38.3424280117  TIP3      7321            0.0000000000
     46864      7522  TIP3      OH2            14.2601018550        2.9042896723      -41.3073497512  TIP3      7322            0.0000000000
     46865      7522  TIP3      H1             14.2317728806        2.1206838080      -40.7500102740  TIP3      7322            0.0000000000
     46866      7522  TIP3      H2             15.1465805803        3.2289190221      -41.1051657646  TIP3      7322            0.0000000000
     46867      7523  TIP3      OH2             3.4839168482        4.3215818705      -39.8199157385  TIP3      7323            0.0000000000
     46868      7523  TIP3      H1              4.1045679510        4.9470979291      -39.3813587491  TIP3      7323            0.0000000000
     46869      7523  TIP3      H2              3.9832286456        4.0732872753      -40.6321668705  TIP3      7323            0.0000000000
     46870      7524  TIP3      OH2             4.8950863508       12.2600713632      -36.8027833283  TIP3      7324            0.0000000000
     46871      7524  TIP3      H1              4.6447891546       12.9631138467      -37.4233503457  TIP3      7324            0.0000000000
     46872      7524  TIP3      H2              4.0358165236       12.1241796412      -36.3238569009  TIP3      7324            0.0000000000
     46873      7525  TIP3      OH2             0.7417445512       11.5872085300      -45.9510890058  TIP3      7325            0.0000000000
     46874      7525  TIP3      H1              0.7082899915       12.2278113727      -46.7047637586  TIP3      7325            0.0000000000
     46875      7525  TIP3      H2              0.8099326901       12.1895811379      -45.1891574258  TIP3      7325            0.0000000000
     46876      7526  TIP3      OH2            14.3869782661       13.3562058529      -39.1992343960  TIP3      7326            0.0000000000
     46877      7526  TIP3      H1             13.4321367429       13.4869543790      -39.0226963439  TIP3      7326            0.0000000000
     46878      7526  TIP3      H2             14.5989709202       14.2402054623      -39.5434029075  TIP3      7326            0.0000000000
     46879      7527  TIP3      OH2            14.5633742451        1.6246717034      -37.9969858211  TIP3      7327            0.0000000000
     46880      7527  TIP3      H1             13.8298160462        1.6964467280      -38.6369798622  TIP3      7327            0.0000000000
     46881      7527  TIP3      H2             15.2859480056        2.0813301618      -38.4720786320  TIP3      7327            0.0000000000
     46882      7528  TIP3      OH2             7.4381766511       -0.1936655395      -40.3890014603  TIP3      7328            0.0000000000
     46883      7528  TIP3      H1              7.1878838454       -1.1254901604      -40.3091240716  TIP3      7328            0.0000000000
     46884      7528  TIP3      H2              6.5558108632        0.2136792475      -40.1934606100  TIP3      7328            0.0000000000
     46885      7529  TIP3      OH2            12.8705031290       15.1266569413      -42.3358668447  TIP3      7329            0.0000000000
     46886      7529  TIP3      H1             12.9355214727       14.3766757243      -42.9688847139  TIP3      7329            0.0000000000
     46887      7529  TIP3      H2             13.6841493492       15.6255712418      -42.5820015887  TIP3      7329            0.0000000000
     46888      7530  TIP3      OH2            13.6521332860       13.0759792021      -43.9148113716  TIP3      7330            0.0000000000
     46889      7530  TIP3      H1             13.5901335810       12.4511812737      -44.6764719163  TIP3      7330            0.0000000000
     46890      7530  TIP3      H2             13.5027445385       12.4410485435      -43.1924947500  TIP3      7330            0.0000000000
     46891      7531  TIP3      OH2            15.3683265810       11.6984175362      -35.2982978311  TIP3      7331            0.0000000000
     46892      7531  TIP3      H1             15.6385903535       10.9522436501      -35.8810820260  TIP3      7331            0.0000000000
     46893      7531  TIP3      H2             15.4729240896       12.4340920974      -35.9403993419  TIP3      7331            0.0000000000
     46894      7532  TIP3      OH2            10.0276338127        8.8884708595      -45.7397119074  TIP3      7332            0.0000000000
     46895      7532  TIP3      H1              9.4883467451        9.7041334306      -45.8800643425  TIP3      7332            0.0000000000
     46896      7532  TIP3      H2             10.6913585807        9.0025175673      -46.4438519568  TIP3      7332            0.0000000000
     46897      7533  TIP3      OH2            10.5208574542        7.1779267697      -48.5610486958  TIP3      7333            0.0000000000
     46898      7533  TIP3      H1             11.1926837696        7.6756314942      -48.0382352510  TIP3      7333            0.0000000000
     46899      7533  TIP3      H2             11.0319051302        6.3658973680      -48.7552607194  TIP3      7333            0.0000000000
     46900      7534  TIP3      OH2            17.5147051561        8.1998505890      -37.5163954449  TIP3      7334            0.0000000000
     46901      7534  TIP3      H1             16.8133853189        8.8743410964      -37.4702609194  TIP3      7334            0.0000000000
     46902      7534  TIP3      H2             18.0881123480        8.6156978187      -38.1945264826  TIP3      7334            0.0000000000
     46903      7535  TIP3      OH2            13.5982110422        8.4112738186      -44.4703657617  TIP3      7335            0.0000000000
     46904      7535  TIP3      H1             12.9103060716        8.9014742302      -43.9545926171  TIP3      7335            0.0000000000
     46905      7535  TIP3      H2             14.3014694868        8.2397368911      -43.8065557731  TIP3      7335            0.0000000000
     46906      7536  TIP3      OH2            13.4796464847        7.0423331207      -35.5779239491  TIP3      7336            0.0000000000
     46907      7536  TIP3      H1             13.2727981725        7.8125724423      -35.0363046554  TIP3      7336            0.0000000000
     46908      7536  TIP3      H2             12.7992170790        7.1405333119      -36.2649307316  TIP3      7336            0.0000000000
     46909      7537  TIP3      OH2             5.0611022497        9.3451467314      -42.7129071921  TIP3      7337            0.0000000000
     46910      7537  TIP3      H1              4.8323170859        9.1119110531      -43.6396676246  TIP3      7337            0.0000000000
     46911      7537  TIP3      H2              5.6681550581        8.6102198618      -42.4851001672  TIP3      7337            0.0000000000
     46912      7538  TIP3      OH2             6.3253087219       12.6736776505      -40.2794523562  TIP3      7338            0.0000000000
     46913      7538  TIP3      H1              6.4745173619       12.5042880413      -41.2168379452  TIP3      7338            0.0000000000
     46914      7538  TIP3      H2              7.0538396219       12.2031623303      -39.8296060909  TIP3      7338            0.0000000000
     46915      7539  TIP3      OH2             5.0819996959        7.9231428217      -39.0689375824  TIP3      7339            0.0000000000
     46916      7539  TIP3      H1              5.5043940427        7.8836344092      -39.9592775202  TIP3      7339            0.0000000000
     46917      7539  TIP3      H2              5.5880456469        8.6722486691      -38.6641434576  TIP3      7339            0.0000000000
     46918      7540  TIP3      OH2            11.8485426773       13.7753774298      -38.3767261652  TIP3      7340            0.0000000000
     46919      7540  TIP3      H1             11.6928958468       14.4427278756      -37.6871606227  TIP3      7340            0.0000000000
     46920      7540  TIP3      H2             11.5637069875       12.9549116131      -37.9262435744  TIP3      7340            0.0000000000
     46921      7541  TIP3      OH2             6.5780186236       12.7260406666      -34.7056086053  TIP3      7341            0.0000000000
     46922      7541  TIP3      H1              5.8488331766       13.1811718512      -34.2203513850  TIP3      7341            0.0000000000
     46923      7541  TIP3      H2              6.0903766904       12.5197660520      -35.5408062734  TIP3      7341            0.0000000000
     46924      7542  TIP3      OH2            12.4647933220        8.0310103168      -46.9275784344  TIP3      7342            0.0000000000
     46925      7542  TIP3      H1             12.9275201921        8.2655504728      -46.0869069485  TIP3      7342            0.0000000000
     46926      7542  TIP3      H2             12.8106219473        8.7016181810      -47.5636567820  TIP3      7342            0.0000000000
     46927      7543  TIP3      OH2             3.3271961068        8.5722338898      -35.4154092800  TIP3      7343            0.0000000000
     46928      7543  TIP3      H1              3.5483538370        9.2525943078      -34.7646770443  TIP3      7343            0.0000000000
     46929      7543  TIP3      H2              2.4775021692        8.2827770459      -35.0451854372  TIP3      7343            0.0000000000
     46930      7544  TIP3      OH2            10.1419629701       15.3496222371      -44.2476605776  TIP3      7344            0.0000000000
     46931      7544  TIP3      H1             10.1967621389       15.3450211052      -43.2895681882  TIP3      7344            0.0000000000
     46932      7544  TIP3      H2              9.5568322504       16.1058391551      -44.4777244115  TIP3      7344            0.0000000000
     46933      7545  TIP3      OH2             4.6780396603       14.3041736148      -33.7209563699  TIP3      7345            0.0000000000
     46934      7545  TIP3      H1              4.5088816742       14.7433417490      -34.5865886434  TIP3      7345            0.0000000000
     46935      7545  TIP3      H2              3.7541174510       14.0980938733      -33.4656959081  TIP3      7345            0.0000000000
     46936      7546  TIP3      OH2            16.3562131405       -0.4097671246      -46.8873629299  TIP3      7346            0.0000000000
     46937      7546  TIP3      H1             15.3811258473       -0.4157747430      -46.7574268726  TIP3      7346            0.0000000000
     46938      7546  TIP3      H2             16.4796982891        0.5291692861      -47.0943150250  TIP3      7346            0.0000000000
     46939      7547  TIP3      OH2             4.0703796933        8.1927040458      -45.1228775838  TIP3      7347            0.0000000000
     46940      7547  TIP3      H1              3.7627524126        9.0171092178      -45.5462433844  TIP3      7347            0.0000000000
     46941      7547  TIP3      H2              3.5520640608        7.5279780093      -45.5941872533  TIP3      7347            0.0000000000
     46942      7548  TIP3      OH2            17.1331339542       14.3368778675      -48.6441773320  TIP3      7348            0.0000000000
     46943      7548  TIP3      H1             17.3409265329       15.2848032193      -48.4637604574  TIP3      7348            0.0000000000
     46944      7548  TIP3      H2             17.9900024418       13.9006030028      -48.4865346307  TIP3      7348            0.0000000000
     46945      7549  TIP3      OH2             0.4171170864       10.9557460380      -36.2388995979  TIP3      7349            0.0000000000
     46946      7549  TIP3      H1             -0.0815703262       10.8831578852      -37.0644841556  TIP3      7349            0.0000000000
     46947      7549  TIP3      H2              0.8806903211       10.0902947084      -36.2479657270  TIP3      7349            0.0000000000
     46948      7550  TIP3      OH2             0.0206741323       13.6143770749      -39.6147415544  TIP3      7350            0.0000000000
     46949      7550  TIP3      H1              0.9594648722       13.3818427625      -39.6448259294  TIP3      7350            0.0000000000
     46950      7550  TIP3      H2              0.0337553159       14.3944682284      -39.0416569050  TIP3      7350            0.0000000000
     46951      7551  TIP3      OH2            18.1964250242       14.2993218743      -33.7648357970  TIP3      7351            0.0000000000
     46952      7551  TIP3      H1             18.0573933868       13.3693921185      -33.9643638238  TIP3      7351            0.0000000000
     46953      7551  TIP3      H2             17.3110908448       14.5105236413      -33.3828209470  TIP3      7351            0.0000000000
     46954      7552  TIP3      OH2             9.0173176154       13.8087865587      -35.0409665012  TIP3      7352            0.0000000000
     46955      7552  TIP3      H1              9.0505189354       14.6432940843      -34.5385932369  TIP3      7352            0.0000000000
     46956      7552  TIP3      H2              8.0870120427       13.4944195173      -34.9156494939  TIP3      7352            0.0000000000
     46957      7553  TIP3      OH2             9.1970410969       17.7015389515      -45.5051055353  TIP3      7353            0.0000000000
     46958      7553  TIP3      H1              9.6252501185       17.7903159151      -46.3680025063  TIP3      7353            0.0000000000
     46959      7553  TIP3      H2              9.5607636907       18.4927618471      -45.0467611076  TIP3      7353            0.0000000000
     46960      7554  TIP3      OH2             3.1744256767       16.2330915314      -43.2525033870  TIP3      7354            0.0000000000
     46961      7554  TIP3      H1              3.4470196828       15.9941650923      -42.3317227380  TIP3      7354            0.0000000000
     46962      7554  TIP3      H2              2.2704331150       15.8670695157      -43.2724095621  TIP3      7354            0.0000000000
     46963      7555  TIP3      OH2            12.2393051468       17.2517708385      -47.8078697188  TIP3      7355            0.0000000000
     46964      7555  TIP3      H1             12.7767161722       16.5387414595      -48.2272580214  TIP3      7355            0.0000000000
     46965      7555  TIP3      H2             12.4217016452       17.1243000741      -46.8525833162  TIP3      7355            0.0000000000
     46966      7556  TIP3      OH2            12.2165085007       16.7878918044      -45.1088008207  TIP3      7356            0.0000000000
     46967      7556  TIP3      H1             11.2743773609       16.5267971944      -45.0834690551  TIP3      7356            0.0000000000
     46968      7556  TIP3      H2             12.5750462931       16.0669294006      -44.5566668648  TIP3      7356            0.0000000000
     46969      7557  TIP3      OH2            15.3114164722        5.7368416090      -33.4998070033  TIP3      7357            0.0000000000
     46970      7557  TIP3      H1             14.6822777383        6.0432980883      -34.1780350017  TIP3      7357            0.0000000000
     46971      7557  TIP3      H2             15.2335855250        4.7711977257      -33.5975204963  TIP3      7357            0.0000000000
     46972      7558  TIP3      OH2             2.5953727445       12.1995385379      -35.3872554363  TIP3      7358            0.0000000000
     46973      7558  TIP3      H1              2.6110751855       11.8047525304      -34.4888046254  TIP3      7358            0.0000000000
     46974      7558  TIP3      H2              1.7302529177       11.8891663982      -35.7305224184  TIP3      7358            0.0000000000
     46975      7559  TIP3      OH2             5.1253859683        0.6829114672      -39.6029298146  TIP3      7359            0.0000000000
     46976      7559  TIP3      H1              4.2489607325        0.7121291530      -40.0101164455  TIP3      7359            0.0000000000
     46977      7559  TIP3      H2              4.9893574527        1.3098971987      -38.8591414397  TIP3      7359            0.0000000000
     46978      7560  TIP3      OH2            10.0475603372        0.3420690297      -36.4036720029  TIP3      7360            0.0000000000
     46979      7560  TIP3      H1             10.3542389209       -0.0482616224      -35.5494419458  TIP3      7360            0.0000000000
     46980      7560  TIP3      H2              9.0645052904        0.2726287781      -36.3490649616  TIP3      7360            0.0000000000
     46981      7561  TIP3      OH2            12.9237760690        4.2623151288      -35.0372422990  TIP3      7361            0.0000000000
     46982      7561  TIP3      H1             12.2484671465        3.9212066883      -34.3950107586  TIP3      7361            0.0000000000
     46983      7561  TIP3      H2             12.5577226938        5.1045664919      -35.3441945629  TIP3      7361            0.0000000000
     46984      7562  TIP3      OH2            14.1301898336        9.2819036675      -48.5275203650  TIP3      7362            0.0000000000
     46985      7562  TIP3      H1             13.6291916244        9.4032250095      -49.3757999132  TIP3      7362            0.0000000000
     46986      7562  TIP3      H2             15.0429227049        9.4568131501      -48.8383932754  TIP3      7362            0.0000000000
     46987      7563  TIP3      OH2             9.5103271224        3.0749199737      -48.5867963114  TIP3      7363            0.0000000000
     46988      7563  TIP3      H1              8.9607218087        2.8244706920      -47.8146404059  TIP3      7363            0.0000000000
     46989      7563  TIP3      H2              9.0695319492        2.5706061554      -49.2762817450  TIP3      7363            0.0000000000
     46990      7564  TIP3      OH2             5.3324426307        5.4915499983      -38.1298055977  TIP3      7364            0.0000000000
     46991      7564  TIP3      H1              4.4902892520        5.4567110643      -37.6224938622  TIP3      7364            0.0000000000
     46992      7564  TIP3      H2              5.2855557820        6.4093812696      -38.4728853391  TIP3      7364            0.0000000000
     46993      7565  TIP3      OH2             5.1508192739        5.2890669308      -43.4580147647  TIP3      7365            0.0000000000
     46994      7565  TIP3      H1              4.1900686416        5.4129436955      -43.5901022299  TIP3      7365            0.0000000000
     46995      7565  TIP3      H2              5.4985582007        5.2399973408      -44.3738020040  TIP3      7365            0.0000000000
     46996      7566  TIP3      OH2            10.8383113316        6.6242463025      -44.3367412801  TIP3      7366            0.0000000000
     46997      7566  TIP3      H1             10.5219099597        7.4556171170      -44.7605026729  TIP3      7366            0.0000000000
     46998      7566  TIP3      H2             11.4675761651        6.3444487583      -45.0309396378  TIP3      7366            0.0000000000
     46999      7567  TIP3      OH2             9.7521710760        6.5545724068      -33.2559531046  TIP3      7367            0.0000000000
     47000      7567  TIP3      H1              9.1402706640        5.8654757343      -32.9198236431  TIP3      7367            0.0000000000
     47001      7567  TIP3      H2             10.4319892213        6.5419890420      -32.5776106153  TIP3      7367            0.0000000000
     47002      7568  TIP3      OH2            11.7319752848        5.8948033905      -41.5205475182  TIP3      7368            0.0000000000
     47003      7568  TIP3      H1             11.7160466999        6.7259415727      -42.0360626250  TIP3      7368            0.0000000000
     47004      7568  TIP3      H2             11.6934150351        5.2530309280      -42.2542665341  TIP3      7368            0.0000000000
     47005      7569  TIP3      OH2             2.9717652914        5.5655400742      -36.9033803103  TIP3      7369            0.0000000000
     47006      7569  TIP3      H1              3.2016775551        5.9611897298      -36.0481416431  TIP3      7369            0.0000000000
     47007      7569  TIP3      H2              2.5662119883        4.7180610502      -36.6188993525  TIP3      7369            0.0000000000
     47008      7570  TIP3      OH2             6.1737180059        3.4741239091      -49.5371164557  TIP3      7370            0.0000000000
     47009      7570  TIP3      H1              5.7768705613        3.1227281903      -48.7200872189  TIP3      7370            0.0000000000
     47010      7570  TIP3      H2              5.4645658418        3.3687220573      -50.1791037971  TIP3      7370            0.0000000000
     47011      7571  TIP3      OH2            -0.4111482015        2.8934264167      -42.3492874014  TIP3      7371            0.0000000000
     47012      7571  TIP3      H1              0.2720536214        2.9534083905      -41.6715985372  TIP3      7371            0.0000000000
     47013      7571  TIP3      H2              0.0841105416        2.8814221708      -43.1793231434  TIP3      7371            0.0000000000
     47014      7572  TIP3      OH2             0.7504231674        3.6598471094      -47.1750355388  TIP3      7372            0.0000000000
     47015      7572  TIP3      H1              1.5476809605        4.0921479337      -47.5284575729  TIP3      7372            0.0000000000
     47016      7572  TIP3      H2              0.1808080124        4.4480718950      -47.0571453123  TIP3      7372            0.0000000000
     47017      7573  TIP3      OH2            10.8109874958        7.4567456100      -37.1596791910  TIP3      7373            0.0000000000
     47018      7573  TIP3      H1             11.3618389938        6.8003434352      -37.6256911560  TIP3      7373            0.0000000000
     47019      7573  TIP3      H2             10.1557131208        6.8566595347      -36.7281450054  TIP3      7373            0.0000000000
     47020      7574  TIP3      OH2             8.1133587952        3.1980021495      -42.2440495264  TIP3      7374            0.0000000000
     47021      7574  TIP3      H1              7.1524730875        3.2441985298      -42.0966484982  TIP3      7374            0.0000000000
     47022      7574  TIP3      H2              8.4565181665        2.7507694617      -41.4481637715  TIP3      7374            0.0000000000
     47023      7575  TIP3      OH2             2.4173318722        4.7635663787      -43.3261862354  TIP3      7375            0.0000000000
     47024      7575  TIP3      H1              1.6731842201        5.1075825604      -43.8653917590  TIP3      7375            0.0000000000
     47025      7575  TIP3      H2              2.6201866757        3.8901503812      -43.7164013144  TIP3      7375            0.0000000000
     47026      7576  TIP3      OH2             6.4378629016        4.8120311762      -45.9265804853  TIP3      7376            0.0000000000
     47027      7576  TIP3      H1              7.3495658142        5.0969872918      -45.7637470313  TIP3      7376            0.0000000000
     47028      7576  TIP3      H2              6.0620215570        5.5058975737      -46.5105132561  TIP3      7376            0.0000000000
     47029      7577  TIP3      OH2            12.2055957850        2.4217778460      -39.2462595107  TIP3      7377            0.0000000000
     47030      7577  TIP3      H1             11.5135187793        2.4609022863      -38.5733320715  TIP3      7377            0.0000000000
     47031      7577  TIP3      H2             11.7646026516        2.0253419718      -40.0187105514  TIP3      7377            0.0000000000
     47032      7578  TIP3      OH2             4.9635763317        6.2251328403      -47.8364932368  TIP3      7378            0.0000000000
     47033      7578  TIP3      H1              4.1592894127        5.9449739439      -48.2987168152  TIP3      7378            0.0000000000
     47034      7578  TIP3      H2              5.6112413042        6.2540009569      -48.5698014485  TIP3      7378            0.0000000000
     47035      7579  TIP3      OH2            15.1031259106       18.3642226868      -32.5560929666  TIP3      7379            0.0000000000
     47036      7579  TIP3      H1             15.3433429755       18.9134856228      -33.3157866522  TIP3      7379            0.0000000000
     47037      7579  TIP3      H2             15.9346575021       18.4148686342      -32.0574347902  TIP3      7379            0.0000000000
     47038      7580  TIP3      OH2             3.0269247562       10.4919339650      -33.1057494909  TIP3      7380            0.0000000000
     47039      7580  TIP3      H1              3.6271793713       10.8626816902      -32.4282716263  TIP3      7380            0.0000000000
     47040      7580  TIP3      H2              2.1840557334       10.4121667448      -32.6062030732  TIP3      7380            0.0000000000
     47041      7581  TIP3      OH2             8.8343169953        6.3221691467      -40.6795913149  TIP3      7381            0.0000000000
     47042      7581  TIP3      H1              9.6183131985        5.8919401609      -41.0598591756  TIP3      7381            0.0000000000
     47043      7581  TIP3      H2              8.6400280259        5.7769303658      -39.9097016258  TIP3      7381            0.0000000000
     47044      7582  TIP3      OH2             3.3597612792        2.0888516060      -43.9754974529  TIP3      7382            0.0000000000
     47045      7582  TIP3      H1              2.7614189433        1.4627411638      -43.5006418594  TIP3      7382            0.0000000000
     47046      7582  TIP3      H2              3.7515066041        1.4838291605      -44.6251228825  TIP3      7382            0.0000000000
     47047      7583  TIP3      OH2             7.7755776209        4.3117190589      -38.0788604293  TIP3      7383            0.0000000000
     47048      7583  TIP3      H1              6.9368462653        4.8231456491      -38.0093358630  TIP3      7383            0.0000000000
     47049      7583  TIP3      H2              8.3603635586        4.8316455687      -37.5027592723  TIP3      7383            0.0000000000
     47050      7584  TIP3      OH2             8.1998174890       10.8114390775      -46.0827110668  TIP3      7384            0.0000000000
     47051      7584  TIP3      H1              7.4921866270       10.2438477227      -46.4441463183  TIP3      7384            0.0000000000
     47052      7584  TIP3      H2              7.8306824597       11.0508477381      -45.2058677044  TIP3      7384            0.0000000000
     47053      7585  TIP3      OH2            15.6882278643       10.2666499236      -37.4832707273  TIP3      7385            0.0000000000
     47054      7585  TIP3      H1             16.1620968445       10.8002736725      -38.1682233734  TIP3      7385            0.0000000000
     47055      7585  TIP3      H2             14.8441003682       10.1366791887      -37.9447642666  TIP3      7385            0.0000000000
     47056      7586  TIP3      OH2            12.0566208972        3.5429500866      -48.1494825712  TIP3      7386            0.0000000000
     47057      7586  TIP3      H1             11.0756374510        3.6246734877      -48.1568459928  TIP3      7386            0.0000000000
     47058      7586  TIP3      H2             12.3234648345        4.3641789659      -47.6803039344  TIP3      7386            0.0000000000
     47059      7587  TIP3      OH2             9.3280209699       10.8952519347      -35.1821684023  TIP3      7387            0.0000000000
     47060      7587  TIP3      H1              9.0796983573       10.2486596976      -34.5166680805  TIP3      7387            0.0000000000
     47061      7587  TIP3      H2              9.1489016352       11.7586810889      -34.7716429945  TIP3      7387            0.0000000000
     47062      7588  TIP3      OH2            12.7093884942        5.4855566403      -46.4956760201  TIP3      7388            0.0000000000
     47063      7588  TIP3      H1             13.5389322522        5.2511007256      -46.0378786479  TIP3      7388            0.0000000000
     47064      7588  TIP3      H2             12.8751510514        6.4202661393      -46.7795135685  TIP3      7388            0.0000000000
     47065      7589  TIP3      OH2             3.4637349345       10.1987080070      -40.5353665127  TIP3      7389            0.0000000000
     47066      7589  TIP3      H1              4.0681295809       10.0425456520      -41.2951508701  TIP3      7389            0.0000000000
     47067      7589  TIP3      H2              3.5454809907        9.3714632954      -40.0391180766  TIP3      7389            0.0000000000
     47068      7590  TIP3      OH2            10.3667851568       12.5289654761      -46.7044453652  TIP3      7390            0.0000000000
     47069      7590  TIP3      H1              9.6058429688       13.1204919526      -46.8399107886  TIP3      7390            0.0000000000
     47070      7590  TIP3      H2             10.3922464269       11.9784075485      -47.5122451339  TIP3      7390            0.0000000000
     47071      7591  TIP3      OH2             0.4658191481        8.3235561714      -35.2134718465  TIP3      7391            0.0000000000
     47072      7591  TIP3      H1              0.2448451208        7.9527366132      -34.3370524558  TIP3      7391            0.0000000000
     47073      7591  TIP3      H2             -0.1533450587        7.8533914752      -35.7967004894  TIP3      7391            0.0000000000
     47074      7592  TIP3      OH2             7.3659071444        8.2575911506      -33.5486431309  TIP3      7392            0.0000000000
     47075      7592  TIP3      H1              6.7210301988        7.7104596757      -34.0262407723  TIP3      7392            0.0000000000
     47076      7592  TIP3      H2              7.6344419266        7.6078108291      -32.8647654746  TIP3      7392            0.0000000000
     47077      7593  TIP3      OH2            12.2346371656       13.4770161818      -34.8947922198  TIP3      7393            0.0000000000
     47078      7593  TIP3      H1             11.3790391975       13.5735611054      -35.3375179931  TIP3      7393            0.0000000000
     47079      7593  TIP3      H2             12.0237132261       13.8774464916      -34.0249994018  TIP3      7393            0.0000000000
     47080      7594  TIP3      OH2            17.8781755852        5.4357662690      -46.6265892145  TIP3      7394            0.0000000000
     47081      7594  TIP3      H1             17.0812565480        5.3631346637      -47.1973898277  TIP3      7394            0.0000000000
     47082      7594  TIP3      H2             18.1083144405        6.3659302771      -46.8005418051  TIP3      7394            0.0000000000
     47083      7595  TIP3      OH2            17.7343228717       11.2753024319      -34.0354394805  TIP3      7395            0.0000000000
     47084      7595  TIP3      H1             16.7917042301       11.4781921268      -34.2634739272  TIP3      7395            0.0000000000
     47085      7595  TIP3      H2             18.1618852177       11.2286457888      -34.9200784222  TIP3      7395            0.0000000000
     47086      7596  TIP3      OH2            16.1225307708       13.9881081898      -46.2133739387  TIP3      7396            0.0000000000
     47087      7596  TIP3      H1             15.2079966084       13.6571874998      -46.1854404400  TIP3      7396            0.0000000000
     47088      7596  TIP3      H2             16.3047447869       14.0398259488      -47.1794820294  TIP3      7396            0.0000000000
     47089      7597  TIP3      OH2            13.1417011797        9.1153501291      -39.4387275609  TIP3      7397            0.0000000000
     47090      7597  TIP3      H1             12.1857708236        8.9487076680      -39.5499214188  TIP3      7397            0.0000000000
     47091      7597  TIP3      H2             13.5031310230        8.3564609792      -39.9456276261  TIP3      7397            0.0000000000
     47092      7598  TIP3      OH2             5.6257811784       13.5410999031      -43.1000322399  TIP3      7398            0.0000000000
     47093      7598  TIP3      H1              6.0251870518       14.3230453897      -43.5444217627  TIP3      7398            0.0000000000
     47094      7598  TIP3      H2              4.6912321264       13.7480865473      -43.2084000081  TIP3      7398            0.0000000000
     47095      7599  TIP3      OH2             1.7075093032        8.1771138472      -48.9168294002  TIP3      7399            0.0000000000
     47096      7599  TIP3      H1              2.2113859769        8.7602132309      -48.3119285660  TIP3      7399            0.0000000000
     47097      7599  TIP3      H2              0.8197892390        8.2300746929      -48.5200173259  TIP3      7399            0.0000000000
     47098      7600  TIP3      OH2             7.0152226114       11.1954222055      -43.6468661024  TIP3      7400            0.0000000000
     47099      7600  TIP3      H1              6.5350011655       12.0401818978      -43.4940295600  TIP3      7400            0.0000000000
     47100      7600  TIP3      H2              6.5687671209       10.5745599210      -43.0479499045  TIP3      7400            0.0000000000
     47101      7601  TIP3      OH2             7.6857121856       15.4193333014      -36.8428125902  TIP3      7401            0.0000000000
     47102      7601  TIP3      H1              8.2990035302       16.0137876854      -37.3120468163  TIP3      7401            0.0000000000
     47103      7601  TIP3      H2              8.3011159175       14.9058952442      -36.2819307192  TIP3      7401            0.0000000000
     47104      7602  TIP3      OH2             5.9107067666       16.0960110392      -44.0354204007  TIP3      7402            0.0000000000
     47105      7602  TIP3      H1              4.9634992691       16.1928816974      -43.8138882057  TIP3      7402            0.0000000000
     47106      7602  TIP3      H2              6.2280081419       16.9826752581      -43.7489128504  TIP3      7402            0.0000000000
     47107      7603  TIP3      OH2            10.7730276694       11.2360963186      -37.4596244670  TIP3      7403            0.0000000000
     47108      7603  TIP3      H1             10.2404924475       10.9724862818      -36.6717284295  TIP3      7403            0.0000000000
     47109      7603  TIP3      H2             11.2826351303       10.4209186258      -37.6290441335  TIP3      7403            0.0000000000
     47110      7604  TIP3      OH2            13.5701561347       12.3698740148      -48.5125122995  TIP3      7404            0.0000000000
     47111      7604  TIP3      H1             13.3300775695       12.4046714164      -47.5658525455  TIP3      7404            0.0000000000
     47112      7604  TIP3      H2             12.8953336611       11.6782694028      -48.7340430516  TIP3      7404            0.0000000000
     47113      7605  TIP3      OH2            13.9820476814       15.7781128345      -35.2144699058  TIP3      7405            0.0000000000
     47114      7605  TIP3      H1             13.0950419960       15.3953420917      -35.4118256569  TIP3      7405            0.0000000000
     47115      7605  TIP3      H2             14.1036331039       16.4333699816      -35.9405475638  TIP3      7405            0.0000000000
     47116      7606  TIP3      OH2            17.9625890317       16.8203499749      -48.1081332461  TIP3      7406            0.0000000000
     47117      7606  TIP3      H1             18.6412267251       17.4524792514      -48.4272798232  TIP3      7406            0.0000000000
     47118      7606  TIP3      H2             17.3853790530       17.4486554620      -47.6012760312  TIP3      7406            0.0000000000
     47119      7607  TIP3      OH2             2.1998312723        3.0941866045      -35.8791831281  TIP3      7407            0.0000000000
     47120      7607  TIP3      H1              1.3804502806        3.5463808298      -35.6160003029  TIP3      7407            0.0000000000
     47121      7607  TIP3      H2              2.2066594498        2.3569403519      -35.2492917766  TIP3      7407            0.0000000000
     47122      7608  TIP3      OH2            14.1775713873       11.2665895435      -46.0113799319  TIP3      7408            0.0000000000
     47123      7608  TIP3      H1             13.8571274743       10.4863997968      -46.4872576278  TIP3      7408            0.0000000000
     47124      7608  TIP3      H2             15.1188515758       11.2189855128      -46.2780310054  TIP3      7408            0.0000000000
     47125      7609  TIP3      OH2             1.7171971613       15.0607659824      -37.3154522596  TIP3      7409            0.0000000000
     47126      7609  TIP3      H1              2.4249537169       14.4089228367      -37.2018070667  TIP3      7409            0.0000000000
     47127      7609  TIP3      H2              1.8239238715       15.5915535512      -36.5147803552  TIP3      7409            0.0000000000
     47128      7610  TIP3      OH2             5.9994850998       12.9893386413      -47.4268766974  TIP3      7410            0.0000000000
     47129      7610  TIP3      H1              6.8602400076       12.6204927774      -47.1412958387  TIP3      7410            0.0000000000
     47130      7610  TIP3      H2              6.1126315214       13.9377402024      -47.1844055875  TIP3      7410            0.0000000000
     47131      7611  TIP3      OH2             2.6861519803       10.1279653875      -47.1652839405  TIP3      7411            0.0000000000
     47132      7611  TIP3      H1              1.9859212394       10.6012537587      -46.6629511532  TIP3      7411            0.0000000000
     47133      7611  TIP3      H2              3.2337281370       10.8842547796      -47.4554738281  TIP3      7411            0.0000000000
     47134      7612  TIP3      OH2            10.7630098652        3.0656515936      -36.3516084030  TIP3      7412            0.0000000000
     47135      7612  TIP3      H1             11.7073419903        3.1067950605      -36.1169025875  TIP3      7412            0.0000000000
     47136      7612  TIP3      H2             10.5524202621        2.1275942546      -36.1859793456  TIP3      7412            0.0000000000
     47137      7613  TIP3      OH2            11.8080150520        1.9912506489      -45.3280283425  TIP3      7413            0.0000000000
     47138      7613  TIP3      H1             11.8409824082        2.7164425469      -45.9782339672  TIP3      7413            0.0000000000
     47139      7613  TIP3      H2             12.1369762987        2.4463627196      -44.5214613471  TIP3      7413            0.0000000000
     47140      7614  TIP3      OH2             8.8946184391       14.8871753231      -47.1931122925  TIP3      7414            0.0000000000
     47141      7614  TIP3      H1              8.2136509701       15.2623305331      -46.6122051896  TIP3      7414            0.0000000000
     47142      7614  TIP3      H2              9.3080075681       15.6982064814      -47.5390568078  TIP3      7414            0.0000000000
     47143      7615  TIP3      OH2             9.0026590793        4.2350582878      -44.5951320178  TIP3      7415            0.0000000000
     47144      7615  TIP3      H1              9.5026627284        5.0707145985      -44.5364288240  TIP3      7415            0.0000000000
     47145      7615  TIP3      H2              8.7728650939        4.0141874201      -43.6690491120  TIP3      7415            0.0000000000
     47146      7616  TIP3      OH2             9.5320368534        5.5756646069      -35.8098904573  TIP3      7416            0.0000000000
     47147      7616  TIP3      H1              9.4799802007        5.9006061259      -34.8794325874  TIP3      7416            0.0000000000
     47148      7616  TIP3      H2              9.8455567912        4.6559689111      -35.6911882551  TIP3      7416            0.0000000000
     47149      7617  TIP3      OH2             9.3138159562        1.1087075796      -44.2055955864  TIP3      7417            0.0000000000
     47150      7617  TIP3      H1              8.9892566788        1.8916772980      -43.7222123761  TIP3      7417            0.0000000000
     47151      7617  TIP3      H2             10.1995755819        1.4473604269      -44.4850374169  TIP3      7417            0.0000000000
     47152      7618  TIP3      OH2             6.2321457733       15.6733049062      -46.7675173837  TIP3      7418            0.0000000000
     47153      7618  TIP3      H1              6.5182756203       16.5389703777      -47.1406275461  TIP3      7418            0.0000000000
     47154      7618  TIP3      H2              6.0804498997       15.9055126971      -45.8274308204  TIP3      7418            0.0000000000
     47155      7619  TIP3      OH2             5.1904611936        2.5250359126      -46.9651705760  TIP3      7419            0.0000000000
     47156      7619  TIP3      H1              5.2415986424        3.3497948234      -46.4510465525  TIP3      7419            0.0000000000
     47157      7619  TIP3      H2              6.1000550474        2.2038153851      -46.8072495087  TIP3      7419            0.0000000000
     47158      7620  TIP3      OH2            15.2738131933        3.1077452937      -34.6842241397  TIP3      7420            0.0000000000
     47159      7620  TIP3      H1             14.3718252799        3.4283367339      -34.9058913963  TIP3      7420            0.0000000000
     47160      7620  TIP3      H2             15.7265245459        3.1694394303      -35.5465189190  TIP3      7420            0.0000000000
     47161      7621  TIP3      OH2            14.1144478397        6.7851838067      -40.7188449187  TIP3      7421            0.0000000000
     47162      7621  TIP3      H1             13.3625613722        6.1737290541      -40.8131120073  TIP3      7421            0.0000000000
     47163      7621  TIP3      H2             14.7761770696        6.2354981606      -40.2441519361  TIP3      7421            0.0000000000
     47164      7622  TIP3      OH2             3.4188748938       12.6155453383      -48.0683439752  TIP3      7422            0.0000000000
     47165      7622  TIP3      H1              4.3184784145       12.8842708972      -47.7497564624  TIP3      7422            0.0000000000
     47166      7622  TIP3      H2              3.6106439811       12.5368247401      -49.0203397579  TIP3      7422            0.0000000000
     47167      7623  TIP3      OH2             1.9410668299        5.5114713123      -48.6919412993  TIP3      7423            0.0000000000
     47168      7623  TIP3      H1              1.9209451079        6.4923392261      -48.6415378799  TIP3      7423            0.0000000000
     47169      7623  TIP3      H2              1.2381943570        5.3248589345      -49.3412956231  TIP3      7423            0.0000000000
     47170      7624  TIP3      OH2            15.0272150382       16.1921737762      -39.2560547161  TIP3      7424            0.0000000000
     47171      7624  TIP3      H1             14.9614915668       16.8601903332      -39.9652653147  TIP3      7424            0.0000000000
     47172      7624  TIP3      H2             16.0030143045       16.1221613270      -39.2259145941  TIP3      7424            0.0000000000
     47173      7625  TIP3      OH2             2.4608096857        0.2891836067      -40.1123507582  TIP3      7425            0.0000000000
     47174      7625  TIP3      H1              2.4167318873        0.1810209761      -41.0867334102  TIP3      7425            0.0000000000
     47175      7625  TIP3      H2              2.2601031102       -0.6220934351      -39.8188174666  TIP3      7425            0.0000000000
     47176      7626  TIP3      OH2             1.1154352173       14.1192749102      -44.1039365273  TIP3      7426            0.0000000000
     47177      7626  TIP3      H1              0.3560584725       14.7120258561      -44.1073839426  TIP3      7426            0.0000000000
     47178      7626  TIP3      H2              1.5692768165       14.4714128029      -44.8839469319  TIP3      7426            0.0000000000
     47179      7627  TIP3      OH2             0.5585663422       17.0710027022      -32.8937964886  TIP3      7427            0.0000000000
     47180      7627  TIP3      H1              1.2840388014       16.8744920716      -32.2703855113  TIP3      7427            0.0000000000
     47181      7627  TIP3      H2              0.2241573020       16.1629759866      -33.0582986820  TIP3      7427            0.0000000000
     47182      7628  TIP3      OH2             5.3952500759       15.8289285036      -31.6053737470  TIP3      7428            0.0000000000
     47183      7628  TIP3      H1              6.2529678739       15.4682356019      -31.3136439723  TIP3      7428            0.0000000000
     47184      7628  TIP3      H2              5.2727251751       15.3607113658      -32.4557651941  TIP3      7428            0.0000000000
     47185      7629  TIP3      OH2             9.4877686984       14.9870407286      -50.2009919533  TIP3      7429            0.0000000000
     47186      7629  TIP3      H1              8.8742275264       14.2373855371      -50.2151267815  TIP3      7429            0.0000000000
     47187      7629  TIP3      H2             10.1255734202       14.6131475794      -49.5645172358  TIP3      7429            0.0000000000
     47188      7630  TIP3      OH2            11.8173945128       14.3963931721      -32.4104195649  TIP3      7430            0.0000000000
     47189      7630  TIP3      H1             11.5314488565       13.5251907342      -32.0213841010  TIP3      7430            0.0000000000
     47190      7630  TIP3      H2             12.6798696821       14.5030889836      -31.9573723567  TIP3      7430            0.0000000000
     47191      7631  TIP3      OH2            13.4775943336       14.9838423980      -48.7715039704  TIP3      7431            0.0000000000
     47192      7631  TIP3      H1             13.4993028216       13.9985565277      -48.8219536423  TIP3      7431            0.0000000000
     47193      7631  TIP3      H2             13.8925531539       15.2696128541      -49.6115559449  TIP3      7431            0.0000000000
     47194      7632  TIP3      OH2             0.3775553728       10.7689411062      -31.9591610923  TIP3      7432            0.0000000000
     47195      7632  TIP3      H1             -0.0276846927        9.8862155241      -31.9030930931  TIP3      7432            0.0000000000
     47196      7632  TIP3      H2             -0.0566958308       11.1158309006      -32.7745661219  TIP3      7432            0.0000000000
     47197      7633  TIP3      OH2             5.5032880147       10.3251295328      -49.5043642853  TIP3      7433            0.0000000000
     47198      7633  TIP3      H1              5.1344050738        9.9365145613      -48.6970271472  TIP3      7433            0.0000000000
     47199      7633  TIP3      H2              6.2557088957       10.8263858943      -49.1342184401  TIP3      7433            0.0000000000
     47200      7634  TIP3      OH2             7.2459081599       10.8622846818      -32.7946812378  TIP3      7434            0.0000000000
     47201      7634  TIP3      H1              7.1771538371       11.4639195143      -33.5654502935  TIP3      7434            0.0000000000
     47202      7634  TIP3      H2              7.3412892317        9.9692687473      -33.2113879548  TIP3      7434            0.0000000000
     47203      7635  TIP3      OH2            12.7975678226       10.4957944779      -34.7652086048  TIP3      7435            0.0000000000
     47204      7635  TIP3      H1             13.5913635061       11.0767306788      -34.8486535551  TIP3      7435            0.0000000000
     47205      7635  TIP3      H2             12.0997835202       11.1677111131      -34.8369550697  TIP3      7435            0.0000000000
     47206      7636  TIP3      OH2             1.6321149319        7.8883301073      -32.2470878318  TIP3      7436            0.0000000000
     47207      7636  TIP3      H1              2.3546072454        7.2940253161      -32.5192261684  TIP3      7436            0.0000000000
     47208      7636  TIP3      H2              2.0698167956        8.3883742547      -31.5287366291  TIP3      7436            0.0000000000
     47209      7637  TIP3      OH2             6.2954926388        8.9588885633      -47.1067187460  TIP3      7437            0.0000000000
     47210      7637  TIP3      H1              5.7380675080        8.2850538068      -46.6759973966  TIP3      7437            0.0000000000
     47211      7637  TIP3      H2              6.7704950582        8.4310908228      -47.7888313933  TIP3      7437            0.0000000000
     47212      7638  TIP3      OH2             5.2189378933        6.8064585752      -35.2988115121  TIP3      7438            0.0000000000
     47213      7638  TIP3      H1              4.6071866962        7.5451753249      -35.5004237239  TIP3      7438            0.0000000000
     47214      7638  TIP3      H2              5.9457298219        7.0173953076      -35.9002304742  TIP3      7438            0.0000000000
     47215      7639  TIP3      OH2             7.6419305758        7.4884832267      -49.0486509993  TIP3      7439            0.0000000000
     47216      7639  TIP3      H1              7.7640917369        7.2989236378      -49.9839286425  TIP3      7439            0.0000000000
     47217      7639  TIP3      H2              8.5738048535        7.4584573175      -48.7177185628  TIP3      7439            0.0000000000
     47218      7640  TIP3      OH2            10.6191071041        9.4920117804      -31.6739422636  TIP3      7440            0.0000000000
     47219      7640  TIP3      H1             11.3292337913        9.4116861931      -32.3304973884  TIP3      7440            0.0000000000
     47220      7640  TIP3      H2             10.0062807907        8.7881902978      -31.9070666122  TIP3      7440            0.0000000000
     47221      7641  TIP3      OH2            16.4982683299        9.2327258299       50.3277496599  TIP3      7441            0.0000000000
     47222      7641  TIP3      H1             16.6367498291        8.7905004336       49.4848591717  TIP3      7441            0.0000000000
     47223      7641  TIP3      H2             16.8222591753       10.1395221317       50.1131645861  TIP3      7441            0.0000000000
     47224      7642  TIP3      OH2             5.5620216231        3.9239773849      -34.4336324386  TIP3      7442            0.0000000000
     47225      7642  TIP3      H1              6.0380753144        3.4216042725      -35.1290233458  TIP3      7442            0.0000000000
     47226      7642  TIP3      H2              5.4781037252        4.8040181704      -34.8206481902  TIP3      7442            0.0000000000
     47227      7643  TIP3      OH2             6.5054832874        2.5920820250      -36.5106856275  TIP3      7443            0.0000000000
     47228      7643  TIP3      H1              7.0923676371        2.9892559459      -37.1929358578  TIP3      7443            0.0000000000
     47229      7643  TIP3      H2              5.6370020332        2.6937103810      -36.9477516922  TIP3      7443            0.0000000000
     47230      7644  TIP3      OH2             7.5478704218        8.1926529935      -36.6250787254  TIP3      7444            0.0000000000
     47231      7644  TIP3      H1              8.3592500629        8.5422685014      -36.2419776603  TIP3      7444            0.0000000000
     47232      7644  TIP3      H2              7.0608473243        8.9855591911      -36.9120529567  TIP3      7444            0.0000000000
     47233      7645  TIP3      OH2            12.3438831299        5.5148831201      -31.0988359364  TIP3      7445            0.0000000000
     47234      7645  TIP3      H1             12.2555624351        4.7896846577      -31.7348253231  TIP3      7445            0.0000000000
     47235      7645  TIP3      H2             13.0467131488        6.0827373461      -31.4516618841  TIP3      7445            0.0000000000
     47236      7646  TIP3      OH2            13.6688330508        8.7225187153      -32.9519826825  TIP3      7446            0.0000000000
     47237      7646  TIP3      H1             13.3693741305        9.3131943380      -33.6821689755  TIP3      7446            0.0000000000
     47238      7646  TIP3      H2             14.6287844207        8.7114473469      -33.1553440165  TIP3      7446            0.0000000000
     47239      7647  TIP3      OH2             3.8584741368        5.9861284419      -32.3266576993  TIP3      7447            0.0000000000
     47240      7647  TIP3      H1              3.7376975166        5.1292555436      -32.7713472433  TIP3      7447            0.0000000000
     47241      7647  TIP3      H2              4.8312956616        6.0783973768      -32.3731377698  TIP3      7447            0.0000000000
     47242      7648  TIP3      OH2             7.3521619921        0.0452080422      -36.6565871658  TIP3      7448            0.0000000000
     47243      7648  TIP3      H1              7.0008294309        0.9452701270      -36.4544423233  TIP3      7448            0.0000000000
     47244      7648  TIP3      H2              6.5296923026       -0.4224910124      -36.8379692848  TIP3      7448            0.0000000000
     47245      7649  TIP3      OH2             8.6171471567        3.9068430764      -32.7250933710  TIP3      7449            0.0000000000
     47246      7649  TIP3      H1              8.3312879841        4.2556567229      -31.8566249109  TIP3      7449            0.0000000000
     47247      7649  TIP3      H2              7.7547072128        3.9037399146      -33.1602591931  TIP3      7449            0.0000000000
     47248      7650  TIP3      OH2            11.2379134071        3.2198236873      -33.2366845994  TIP3      7450            0.0000000000
     47249      7650  TIP3      H1             10.2562804083        3.2743043845      -33.1771956107  TIP3      7450            0.0000000000
     47250      7650  TIP3      H2             11.4343920579        2.7500040002      -32.3996210449  TIP3      7450            0.0000000000
     47251      7651  TIP3      OH2            12.4085616351        1.9036049959      -31.1211837603  TIP3      7451            0.0000000000
     47252      7651  TIP3      H1             12.5676061153        1.0398648826      -31.5592912545  TIP3      7451            0.0000000000
     47253      7651  TIP3      H2             12.5240567425        1.6993204403      -30.1907333453  TIP3      7451            0.0000000000
     47254      7652  TIP3      OH2             2.1366611270        3.4868899613      -32.1503264178  TIP3      7452            0.0000000000
     47255      7652  TIP3      H1              2.3463727644        2.7272682852      -32.7082734706  TIP3      7452            0.0000000000
     47256      7652  TIP3      H2              2.2798710741        3.1263915561      -31.2409643248  TIP3      7452            0.0000000000
     47257      7653  TIP3      OH2             6.9909940859       -0.3734595586      -33.7186409981  TIP3      7453            0.0000000000
     47258      7653  TIP3      H1              7.7160849356       -0.9293628736      -33.3739847637  TIP3      7453            0.0000000000
     47259      7653  TIP3      H2              7.1398669188       -0.4790951427      -34.6734438903  TIP3      7453            0.0000000000
     47260      7654  TIP3      OH2             7.3701170562        0.8144606184      -31.1477464516  TIP3      7454            0.0000000000
     47261      7654  TIP3      H1              7.1748165514        0.5393951789      -32.0657858778  TIP3      7454            0.0000000000
     47262      7654  TIP3      H2              7.0687664111        1.7536443368      -31.1275163016  TIP3      7454            0.0000000000
     47263      7655  TIP3      OH2             6.9871913388       17.9958632316      -47.8962477478  TIP3      7455            0.0000000000
     47264      7655  TIP3      H1              7.9570663546       17.9265684802      -47.8890131220  TIP3      7455            0.0000000000
     47265      7655  TIP3      H2              6.8160689825       18.3613254984      -48.7719810871  TIP3      7455            0.0000000000
     47266      7656  TIP3      OH2             0.7640080483       12.9181281154      -48.3596010192  TIP3      7456            0.0000000000
     47267      7656  TIP3      H1              1.7405272935       12.7952182884      -48.2362634577  TIP3      7456            0.0000000000
     47268      7656  TIP3      H2              0.5888560036       12.3406352204      -49.1144114871  TIP3      7456            0.0000000000
     47269      7657  TIP3      OH2            -0.4495912163       17.6404151892      -43.7660614979  TIP3      7457            0.0000000000
     47270      7657  TIP3      H1             -1.2445850520       17.1590522132      -44.0847569512  TIP3      7457            0.0000000000
     47271      7657  TIP3      H2             -0.1873743785       17.0949611289      -42.9933043262  TIP3      7457            0.0000000000
     47272      7658  TIP3      OH2             0.3889058053       15.9843956526      -41.7691845182  TIP3      7458            0.0000000000
     47273      7658  TIP3      H1             -0.1685778252       15.2213861681      -41.5331584216  TIP3      7458            0.0000000000
     47274      7658  TIP3      H2              0.9439923420       16.1093830172      -40.9732155931  TIP3      7458            0.0000000000
     47275      7659  TIP3      OH2            17.7867309416       16.7281399157      -39.1446852957  TIP3      7459            0.0000000000
     47276      7659  TIP3      H1             18.0942118468       16.8344476346      -38.2316887710  TIP3      7459            0.0000000000
     47277      7659  TIP3      H2             18.4862312357       17.1873722145      -39.6346144160  TIP3      7459            0.0000000000
     47278      7660  TIP3      OH2            17.2080287150       16.3665796126      -36.0953114144  TIP3      7460            0.0000000000
     47279      7660  TIP3      H1             16.8417482896       15.6206179167      -36.6234796007  TIP3      7460            0.0000000000
     47280      7660  TIP3      H2             17.4859144318       15.8754012747      -35.3004549553  TIP3      7460            0.0000000000
     47281      7661  TIP3      OH2            16.0104056460       12.0697905753      -31.2204531482  TIP3      7461            0.0000000000
     47282      7661  TIP3      H1             15.0554263919       12.1170736554      -31.0452773731  TIP3      7461            0.0000000000
     47283      7661  TIP3      H2             16.3238495367       12.8697995533      -30.7572879431  TIP3      7461            0.0000000000
     47284      7662  TIP3      OH2            16.8924364639       10.5778388931      -46.1285233287  TIP3      7462            0.0000000000
     47285      7662  TIP3      H1             17.7505505480       10.9710940295      -45.8591798068  TIP3      7462            0.0000000000
     47286      7662  TIP3      H2             16.7049345467        9.9851460896      -45.3832171251  TIP3      7462            0.0000000000
     47287      7663  TIP3      OH2            17.4916017681        8.7015792537      -43.7150852726  TIP3      7463            0.0000000000
     47288      7663  TIP3      H1             16.6913831640        8.1996575799      -43.4391953854  TIP3      7463            0.0000000000
     47289      7663  TIP3      H2             18.0000172754        8.7018842473      -42.8799509305  TIP3      7463            0.0000000000
     47290      7664  TIP3      OH2            17.2058711512       11.3488958394      -39.3653333369  TIP3      7464            0.0000000000
     47291      7664  TIP3      H1             17.8719118088       10.6468070738      -39.5224010169  TIP3      7464            0.0000000000
     47292      7664  TIP3      H2             17.6901965166       12.1584617060      -39.6153257843  TIP3      7464            0.0000000000
     47293      7665  TIP3      OH2            15.8402154880       14.1294246181      -36.8625346584  TIP3      7465            0.0000000000
     47294      7665  TIP3      H1             15.1536214502       14.5151767095      -36.2921563530  TIP3      7465            0.0000000000
     47295      7665  TIP3      H2             15.3292178362       13.8680524020      -37.6564791830  TIP3      7465            0.0000000000
     47296      7666  TIP3      OH2            18.1177758141        8.4720872323      -47.6451327544  TIP3      7466            0.0000000000
     47297      7666  TIP3      H1             17.3803897352        8.6654996939      -48.2665904566  TIP3      7466            0.0000000000
     47298      7666  TIP3      H2             18.0294826945        9.2422104781      -47.0496875015  TIP3      7466            0.0000000000
     47299      7667  TIP3      OH2            15.6662982008        5.3991806887      -48.4026643952  TIP3      7467            0.0000000000
     47300      7667  TIP3      H1             15.4928363833        6.0575844119      -49.0966802571  TIP3      7467            0.0000000000
     47301      7667  TIP3      H2             16.0606457811        4.7198580761      -48.9780393349  TIP3      7467            0.0000000000
     47302      7668  TIP3      OH2            15.4803397340        7.1254330063      -43.0171896557  TIP3      7468            0.0000000000
     47303      7668  TIP3      H1             15.1895217401        6.2423263414      -43.2703845224  TIP3      7468            0.0000000000
     47304      7668  TIP3      H2             15.1618974775        7.1655662499      -42.0920992745  TIP3      7468            0.0000000000
     47305      7669  TIP3      OH2             0.2575201003        9.5151866288      -39.0997175438  TIP3      7469            0.0000000000
     47306      7669  TIP3      H1              0.3650532582        9.1687720533      -40.0121250230  TIP3      7469            0.0000000000
     47307      7669  TIP3      H2              1.0847846404        9.1407488064      -38.7096942438  TIP3      7469            0.0000000000
     47308      7670  TIP3      OH2            16.3174580384        9.0143783584      -33.7397230936  TIP3      7470            0.0000000000
     47309      7670  TIP3      H1             16.8630225235        8.2032882059      -33.6093748315  TIP3      7470            0.0000000000
     47310      7670  TIP3      H2             17.0011102379        9.7104403762      -33.8450909240  TIP3      7470            0.0000000000
     47311      7671  TIP3      OH2            17.7894371505        6.7356953761      -33.3296769692  TIP3      7471            0.0000000000
     47312      7671  TIP3      H1             16.8753940013        6.3768862866      -33.3828785937  TIP3      7471            0.0000000000
     47313      7671  TIP3      H2             18.2880085421        5.8941224670      -33.1998206149  TIP3      7471            0.0000000000
     47314      7672  TIP3      OH2            15.4518545656        3.0794937803      -50.0419680514  TIP3      7472            0.0000000000
     47315      7672  TIP3      H1             16.0006231187        2.5656504209      -49.4168618756  TIP3      7472            0.0000000000
     47316      7672  TIP3      H2             14.5523859394        2.8413794038      -49.7836159857  TIP3      7472            0.0000000000
     47317      7673  TIP3      OH2            14.8204284880        4.6331858263      -45.0145762875  TIP3      7473            0.0000000000
     47318      7673  TIP3      H1             15.1518894618        3.7502894519      -44.7484859004  TIP3      7473            0.0000000000
     47319      7673  TIP3      H2             15.6485820581        5.0222196700      -45.3207242402  TIP3      7473            0.0000000000
     47320      7674  TIP3      OH2            15.9343967354        5.2404459445      -39.4383435424  TIP3      7474            0.0000000000
     47321      7674  TIP3      H1             16.9148012582        5.3730815746      -39.3355371644  TIP3      7474            0.0000000000
     47322      7674  TIP3      H2             15.6857152380        5.2894535477      -38.5012605941  TIP3      7474            0.0000000000
     47323      7675  TIP3      OH2            15.8867887140        6.0691355502      -36.8821358021  TIP3      7475            0.0000000000
     47324      7675  TIP3      H1             14.9628327180        6.3443913386      -36.7671995945  TIP3      7475            0.0000000000
     47325      7675  TIP3      H2             16.3524523832        6.9317568591      -36.9892970363  TIP3      7475            0.0000000000
     47326      7676  TIP3      OH2            -0.2226380200        4.3712864272      -33.2348526730  TIP3      7476            0.0000000000
     47327      7676  TIP3      H1              0.6053985818        4.2835945958      -32.7173856559  TIP3      7476            0.0000000000
     47328      7676  TIP3      H2             -0.5936162470        3.4683175057      -33.2102090131  TIP3      7476            0.0000000000
     47329      7677  TIP3      OH2            18.4362914330        0.1079974144      -31.3097361242  TIP3      7477            0.0000000000
     47330      7677  TIP3      H1             18.8503188317       -0.5323001603      -31.9364055792  TIP3      7477            0.0000000000
     47331      7677  TIP3      H2             18.1536786590        0.7569717072      -31.9901191654  TIP3      7477            0.0000000000
     47332      7678  TIP3      OH2            16.1099394123        2.1965678680      -44.7069348513  TIP3      7478            0.0000000000
     47333      7678  TIP3      H1             16.3311993197        1.6837784331      -43.8948704006  TIP3      7478            0.0000000000
     47334      7678  TIP3      H2             15.4818333062        1.5943301967      -45.1222932754  TIP3      7478            0.0000000000
     47335      7679  TIP3      OH2             1.2277392090        2.6962995210      -39.6716327207  TIP3      7479            0.0000000000
     47336      7679  TIP3      H1              1.6199959119        1.7949679124      -39.7170075599  TIP3      7479            0.0000000000
     47337      7679  TIP3      H2              1.9658409885        3.2873009057      -39.9102913751  TIP3      7479            0.0000000000
     47338      7680  TIP3      OH2            -0.3785682716        5.7809395113      -39.1453865167  TIP3      7480            0.0000000000
     47339      7680  TIP3      H1              0.1041433414        5.5220713801      -39.9519046605  TIP3      7480            0.0000000000
     47340      7680  TIP3      H2              0.1362218702        6.5678301113      -38.9230728513  TIP3      7480            0.0000000000
     47341      7681  TIP3      OH2            17.6200935060        1.9243000750      -33.0481233252  TIP3      7481            0.0000000000
     47342      7681  TIP3      H1             16.8797058781        2.4956014190      -32.7560309988  TIP3      7481            0.0000000000
     47343      7681  TIP3      H2             17.2490519028        1.6147913194      -33.8924710166  TIP3      7481            0.0000000000
     47344      7682  TIP3      OH2            17.5174767920        2.1286691680      -48.3425660648  TIP3      7482            0.0000000000
     47345      7682  TIP3      H1             18.0007425489        1.4957041343      -48.8988524676  TIP3      7482            0.0000000000
     47346      7682  TIP3      H2             18.2209689365        2.7855664969      -48.1625469239  TIP3      7482            0.0000000000
     47347      7683  TIP3      OH2            -0.1623435472        1.9727390901      -45.2032955553  TIP3      7483            0.0000000000
     47348      7683  TIP3      H1             -1.0674214459        2.2888224534      -45.0612980481  TIP3      7483            0.0000000000
     47349      7683  TIP3      H2              0.0434722896        2.3892501898      -46.0654689461  TIP3      7483            0.0000000000
     47350      7684  TIP3      OH2            14.5883555381       16.9252099308      -43.1555390882  TIP3      7484            0.0000000000
     47351      7684  TIP3      H1             15.2415659785       16.7374607915      -43.8628138283  TIP3      7484            0.0000000000
     47352      7684  TIP3      H2             15.0298576093       17.5710243871      -42.5721458065  TIP3      7484            0.0000000000
     47353      7685  TIP3      OH2            -0.1325294719        0.5523380806      -36.8612233469  TIP3      7485            0.0000000000
     47354      7685  TIP3      H1             -0.7423576157        0.0809820739      -36.2686655199  TIP3      7485            0.0000000000
     47355      7685  TIP3      H2             -0.7118752365        1.1505117275      -37.3636662921  TIP3      7485            0.0000000000
     47356      7686  TIP3      OH2             2.1182053673       13.8601076090      -32.8714177896  TIP3      7486            0.0000000000
     47357      7686  TIP3      H1              1.2422381053       14.1328662476      -33.1866714953  TIP3      7486            0.0000000000
     47358      7686  TIP3      H2              1.9388025457       13.4558930774      -32.0164818529  TIP3      7486            0.0000000000
     47359      7687  TIP3      OH2             4.9841281159       15.2754872204      -36.2469044185  TIP3      7487            0.0000000000
     47360      7687  TIP3      H1              5.0086675172       16.1833829504      -36.6235296176  TIP3      7487            0.0000000000
     47361      7687  TIP3      H2              5.9392561145       15.0760669699      -36.2697702871  TIP3      7487            0.0000000000
     47362      7688  TIP3      OH2             9.0801371496       16.5076956234      -33.7304310737  TIP3      7488            0.0000000000
     47363      7688  TIP3      H1              9.2370848124       16.1298554785      -32.8424253094  TIP3      7488            0.0000000000
     47364      7688  TIP3      H2              9.9886291549       16.7924635898      -33.9702053909  TIP3      7488            0.0000000000
     47365      7689  TIP3      OH2            11.3609377715       17.7433794878      -34.3899431019  TIP3      7489            0.0000000000
     47366      7689  TIP3      H1             12.1169267117       17.2250237839      -34.6990172254  TIP3      7489            0.0000000000
     47367      7689  TIP3      H2             11.6867339200       18.0912782565      -33.5311746942  TIP3      7489            0.0000000000
     47368      7690  TIP3      OH2            16.4653496579        0.0300106998      -35.0162368925  TIP3      7490            0.0000000000
     47369      7690  TIP3      H1             15.7461967722        0.4831465413      -35.4806402799  TIP3      7490            0.0000000000
     47370      7690  TIP3      H2             16.6090975987       -0.7630142217      -35.5832224385  TIP3      7490            0.0000000000
     47371      7691  TIP3      OH2             2.3504654989       18.2204347002      -36.5550494461  TIP3      7491            0.0000000000
     47372      7691  TIP3      H1              1.5651965411       18.7114833977      -36.8816873683  TIP3      7491            0.0000000000
     47373      7691  TIP3      H2              2.2577413996       18.3574499569      -35.5968850189  TIP3      7491            0.0000000000
     47374      7692  TIP3      OH2             4.7054950605       17.7489584112      -37.5238431005  TIP3      7492            0.0000000000
     47375      7692  TIP3      H1              3.7658742581       17.8912422570      -37.2541321759  TIP3      7492            0.0000000000
     47376      7692  TIP3      H2              4.7625652244       18.3802069243      -38.2584080546  TIP3      7492            0.0000000000
     47377      7693  TIP3      OH2             9.4403995373       17.3117010687      -38.4085044105  TIP3      7493            0.0000000000
     47378      7693  TIP3      H1              8.8955972466       17.8084856951      -39.0350555566  TIP3      7493            0.0000000000
     47379      7693  TIP3      H2              9.7118244182       18.0253259598      -37.7837386553  TIP3      7493            0.0000000000
     47380      7694  TIP3      OH2            11.5419560427       16.0407266107      -36.8531654306  TIP3      7494            0.0000000000
     47381      7694  TIP3      H1             10.8672323128       16.4439084845      -37.4362723705  TIP3      7494            0.0000000000
     47382      7694  TIP3      H2             12.3010233840       16.6019252361      -37.1008140325  TIP3      7494            0.0000000000
     47383      7695  TIP3      OH2            14.1839750762       17.6628670599      -37.1675064805  TIP3      7495            0.0000000000
     47384      7695  TIP3      H1             14.2566088844       18.5729518149      -37.5047597725  TIP3      7495            0.0000000000
     47385      7695  TIP3      H2             14.5782339783       17.1804743098      -37.9279511194  TIP3      7495            0.0000000000
     47386      7696  TIP3      OH2             1.9556235708       16.6260681350      -39.5443598377  TIP3      7496            0.0000000000
     47387      7696  TIP3      H1              1.7389685907       16.0115212551      -38.8031700713  TIP3      7496            0.0000000000
     47388      7696  TIP3      H2              2.8330524615       16.2852718176      -39.8317239241  TIP3      7496            0.0000000000
     47389      7697  TIP3      OH2             4.0379157693       15.5596287719      -40.8176304095  TIP3      7497            0.0000000000
     47390      7697  TIP3      H1              3.9349083368       14.6211750274      -40.5654933060  TIP3      7497            0.0000000000
     47391      7697  TIP3      H2              4.9253112455       15.7335523340      -40.4340207261  TIP3      7497            0.0000000000
     47392      7698  TIP3      OH2             6.3607565938       15.5067577719      -39.5550752126  TIP3      7498            0.0000000000
     47393      7698  TIP3      H1              6.6481825537       14.5879402645      -39.7290648260  TIP3      7498            0.0000000000
     47394      7698  TIP3      H2              6.5957248772       15.6182484368      -38.6180751524  TIP3      7498            0.0000000000
     47395      7699  TIP3      OH2             9.9067575853        1.3975735838      -40.7735965332  TIP3      7499            0.0000000000
     47396      7699  TIP3      H1              9.1523274154        1.0497777986      -40.2759768631  TIP3      7499            0.0000000000
     47397      7699  TIP3      H2             10.0823304072        0.6803528692      -41.3995140221  TIP3      7499            0.0000000000
     47398      7700  TIP3      OH2            15.1771683187       -0.5075998866      -40.9882458538  TIP3      7500            0.0000000000
     47399      7700  TIP3      H1             15.8603450684        0.0583986913      -41.4347560997  TIP3      7500            0.0000000000
     47400      7700  TIP3      H2             14.3331371011       -0.1633056830      -41.3616558808  TIP3      7500            0.0000000000
     47401      7701  TIP3      OH2            16.9170008254        0.7181374536      -42.5904247968  TIP3      7501            0.0000000000
     47402      7701  TIP3      H1             17.5450991866        0.1274468950      -43.0793732167  TIP3      7501            0.0000000000
     47403      7701  TIP3      H2             17.4736489863        1.5170807593      -42.4391218108  TIP3      7501            0.0000000000
     47404      7702  TIP3      OH2             2.1929312570       -0.1175242086      -42.9223970425  TIP3      7502            0.0000000000
     47405      7702  TIP3      H1              1.3796310270       -0.2589441096      -43.4325963092  TIP3      7502            0.0000000000
     47406      7702  TIP3      H2              2.6815257364       -0.9521881785      -43.0956132895  TIP3      7502            0.0000000000
     47407      7703  TIP3      OH2             1.0008894358       -0.1747173830      -47.3156516365  TIP3      7503            0.0000000000
     47408      7703  TIP3      H1              1.5708413378        0.5199544233      -47.7304666592  TIP3      7503            0.0000000000
     47409      7703  TIP3      H2              0.5641744670        0.3086519574      -46.5958443076  TIP3      7503            0.0000000000
     47410      7704  TIP3      OH2             6.7537473623       -0.4867525726      -43.1386941451  TIP3      7504            0.0000000000
     47411      7704  TIP3      H1              7.4964085117       -0.0762228678      -43.5988396935  TIP3      7504            0.0000000000
     47412      7704  TIP3      H2              6.8686222700       -0.1868973883      -42.2291854660  TIP3      7504            0.0000000000
     47413      7705  TIP3      OH2            12.6588996562        0.1395033200      -41.9260522117  TIP3      7505            0.0000000000
     47414      7705  TIP3      H1             12.2985495226        0.1534693231      -42.8173160380  TIP3      7505            0.0000000000
     47415      7705  TIP3      H2             12.1340156228       -0.5787749999      -41.4992880653  TIP3      7505            0.0000000000
     47416      7706  TIP3      OH2            14.0610670007       -0.1173220366      -45.7444585132  TIP3      7506            0.0000000000
     47417      7706  TIP3      H1             13.3034948149        0.4896323589      -45.8106394082  TIP3      7506            0.0000000000
     47418      7706  TIP3      H2             13.6560223572       -0.8518499678      -45.2517987921  TIP3      7506            0.0000000000
     47419      7707  TIP3      OH2             0.9164901618       15.9576718100      -46.2388735232  TIP3      7507            0.0000000000
     47420      7707  TIP3      H1              0.0585653585       15.9426542328      -46.7000679807  TIP3      7507            0.0000000000
     47421      7707  TIP3      H2              1.1017271504       16.9047066975      -46.3279270435  TIP3      7507            0.0000000000
     47422      7708  TIP3      OH2             2.6796185631        1.3305155080      -48.7680594831  TIP3      7508            0.0000000000
     47423      7708  TIP3      H1              3.4330148836        0.7175815092      -48.8192276321  TIP3      7508            0.0000000000
     47424      7708  TIP3      H2              3.0334161342        2.0781163996      -48.2676050619  TIP3      7508            0.0000000000
     47425      7709  TIP3      OH2             8.0779775533        2.1050245033      -46.4129279301  TIP3      7509            0.0000000000
     47426      7709  TIP3      H1              8.5009993412        1.4920645343      -45.7714198267  TIP3      7509            0.0000000000
     47427      7709  TIP3      H2              8.1239950850        2.9211404604      -45.8836987821  TIP3      7509            0.0000000000
     47428      7710  TIP3      OH2             9.6859929839       17.2983452748      -48.2363897719  TIP3      7510            0.0000000000
     47429      7710  TIP3      H1             10.6598736100       17.4736165348      -48.1246898574  TIP3      7510            0.0000000000
     47430      7710  TIP3      H2              9.7330564279       16.8601751245      -49.0994797310  TIP3      7510            0.0000000000
     47431      7711  TIP3      OH2            16.3418810552       16.3767779333      -44.9914047842  TIP3      7511            0.0000000000
     47432      7711  TIP3      H1             16.2693272153       15.4985976752      -45.4473777201  TIP3      7511            0.0000000000
     47433      7711  TIP3      H2             16.2967368055       16.9960662524      -45.7461435252  TIP3      7511            0.0000000000
     47434      7712  TIP3      OH2             1.9233538995        0.7418805271      -33.5408667531  TIP3      7512            0.0000000000
     47435      7712  TIP3      H1              1.4873396520       -0.1216047726      -33.4436581361  TIP3      7512            0.0000000000
     47436      7712  TIP3      H2              2.7081003614        0.6194981689      -32.9608227805  TIP3      7512            0.0000000000
     47437      7713  TIP3      OH2             4.0342847140        0.1187671060      -31.7298998731  TIP3      7513            0.0000000000
     47438      7713  TIP3      H1              4.9422467598       -0.1673948388      -31.9456957692  TIP3      7513            0.0000000000
     47439      7713  TIP3      H2              3.7074423970       -0.7038911988      -31.3028191919  TIP3      7513            0.0000000000
     47440      7714  TIP3      OH2             3.1042903437       17.1190467813      -48.5776096857  TIP3      7514            0.0000000000
     47441      7714  TIP3      H1              2.5013743143       17.3412491703      -47.8501415220  TIP3      7514            0.0000000000
     47442      7714  TIP3      H2              3.5873158856       16.3506954487      -48.2525723999  TIP3      7514            0.0000000000
     47443      7715  TIP3      OH2            12.5236038162       -0.6656951680      -31.9260710219  TIP3      7515            0.0000000000
     47444      7715  TIP3      H1             12.5061069675       -1.2220924668      -31.1142256050  TIP3      7515            0.0000000000
     47445      7715  TIP3      H2             13.4614701640       -0.7855536136      -32.1831943220  TIP3      7515            0.0000000000
     47446      7716  TIP3      OH2            15.8525394773       15.4396036310      -33.3479829477  TIP3      7516            0.0000000000
     47447      7716  TIP3      H1             15.0941902128       15.3545257150      -33.9712517056  TIP3      7516            0.0000000000
     47448      7716  TIP3      H2             15.6445843083       16.3020934318      -32.9522222405  TIP3      7516            0.0000000000
     47449      7717  TIP3      OH2            30.4092968554        9.4605803280      -43.0792988386  TIP3      7517            0.0000000000
     47450      7717  TIP3      H1             30.3372892756       10.3242494786      -42.6412944257  TIP3      7517            0.0000000000
     47451      7717  TIP3      H2             29.6362983961        9.5255465873      -43.6708282274  TIP3      7517            0.0000000000
     47452      7718  TIP3      OH2            28.9949888626        8.2290335241      -39.9019997521  TIP3      7518            0.0000000000
     47453      7718  TIP3      H1             29.1939651523        7.8048417800      -39.0424721509  TIP3      7518            0.0000000000
     47454      7718  TIP3      H2             28.2995531414        7.6690055028      -40.3029618554  TIP3      7518            0.0000000000
     47455      7719  TIP3      OH2            21.2793420535        8.2477821449      -38.3816021348  TIP3      7519            0.0000000000
     47456      7719  TIP3      H1             21.1473990350        7.5999536557      -37.6642024937  TIP3      7519            0.0000000000
     47457      7719  TIP3      H2             22.0512594269        8.7120986740      -38.0325794891  TIP3      7519            0.0000000000
     47458      7720  TIP3      OH2            32.8114040808       11.5872860171      -41.1143694217  TIP3      7520            0.0000000000
     47459      7720  TIP3      H1             32.7527044807       10.8194007393      -40.5209538083  TIP3      7520            0.0000000000
     47460      7720  TIP3      H2             32.6907771537       12.3273878693      -40.4928785889  TIP3      7520            0.0000000000
     47461      7721  TIP3      OH2            22.3951194193       12.9283520185      -39.8430030824  TIP3      7521            0.0000000000
     47462      7721  TIP3      H1             22.0427283314       12.0282986410      -40.0019770453  TIP3      7521            0.0000000000
     47463      7721  TIP3      H2             23.3366557849       12.7256892418      -40.0256266574  TIP3      7521            0.0000000000
     47464      7722  TIP3      OH2            18.9312101726        6.1397836774      -44.1943211332  TIP3      7522            0.0000000000
     47465      7722  TIP3      H1             18.4969571078        7.0061764538      -44.1248765067  TIP3      7522            0.0000000000
     47466      7722  TIP3      H2             18.4932936943        5.7566039354      -44.9739774938  TIP3      7522            0.0000000000
     47467      7723  TIP3      OH2            19.5154417714        8.5406824615      -41.7121649257  TIP3      7523            0.0000000000
     47468      7723  TIP3      H1             19.9904671450        7.6769234582      -41.6031112981  TIP3      7523            0.0000000000
     47469      7723  TIP3      H2             20.1102037703        9.0563244907      -42.2783828723  TIP3      7523            0.0000000000
     47470      7724  TIP3      OH2            29.8940212877       16.8421288711      -41.0338307273  TIP3      7524            0.0000000000
     47471      7724  TIP3      H1             30.4911618761       16.2480372735      -41.5568008406  TIP3      7524            0.0000000000
     47472      7724  TIP3      H2             29.5386318306       16.1913139007      -40.4175435824  TIP3      7524            0.0000000000
     47473      7725  TIP3      OH2            27.2886189628       10.9267363230      -38.7229309596  TIP3      7525            0.0000000000
     47474      7725  TIP3      H1             27.5899340115       10.4631773651      -39.5137971366  TIP3      7525            0.0000000000
     47475      7725  TIP3      H2             28.1447176024       11.2011569095      -38.3339986175  TIP3      7525            0.0000000000
     47476      7726  TIP3      OH2            36.2323536397        2.7568923833      -38.8674166606  TIP3      7526            0.0000000000
     47477      7726  TIP3      H1             36.2151363436        3.4114932997      -38.1491051775  TIP3      7526            0.0000000000
     47478      7726  TIP3      H2             36.8484050623        3.1701012395      -39.5028203560  TIP3      7526            0.0000000000
     47479      7727  TIP3      OH2            30.8265538754        5.3787998199      -38.7082762938  TIP3      7527            0.0000000000
     47480      7727  TIP3      H1             31.2848316372        4.5782836589      -38.4282314451  TIP3      7527            0.0000000000
     47481      7727  TIP3      H2             30.7754264834        5.2158015974      -39.6695212979  TIP3      7527            0.0000000000
     47482      7728  TIP3      OH2            23.6855243980        3.2427923608      -41.9666697490  TIP3      7528            0.0000000000
     47483      7728  TIP3      H1             23.8711839496        4.0380638604      -42.5167251765  TIP3      7528            0.0000000000
     47484      7728  TIP3      H2             23.3597271833        2.6404582627      -42.6662710734  TIP3      7528            0.0000000000
     47485      7729  TIP3      OH2            31.5048392365        3.4940434853      -43.2934015167  TIP3      7529            0.0000000000
     47486      7729  TIP3      H1             32.0498864282        3.3463474527      -42.4776414588  TIP3      7529            0.0000000000
     47487      7729  TIP3      H2             32.0361946612        4.1593058791      -43.7471979114  TIP3      7529            0.0000000000
     47488      7730  TIP3      OH2            20.3604039992        6.1288796189      -41.0413558945  TIP3      7530            0.0000000000
     47489      7730  TIP3      H1             20.9933128162        5.7368772390      -40.4115057752  TIP3      7530            0.0000000000
     47490      7730  TIP3      H2             20.5679171587        5.6349207061      -41.8612005924  TIP3      7530            0.0000000000
     47491      7731  TIP3      OH2            25.3304404444        7.3974624476      -41.5577239240  TIP3      7531            0.0000000000
     47492      7731  TIP3      H1             26.0917884928        6.9377496721      -41.1589835353  TIP3      7531            0.0000000000
     47493      7731  TIP3      H2             24.9534174181        6.6751385699      -42.0929465600  TIP3      7531            0.0000000000
     47494      7732  TIP3      OH2            36.1585169599        3.7821558651      -36.0856873063  TIP3      7532            0.0000000000
     47495      7732  TIP3      H1             35.5489908346        4.4477215633      -36.4748581361  TIP3      7532            0.0000000000
     47496      7732  TIP3      H2             36.9095064554        4.3523713855      -35.8664928181  TIP3      7532            0.0000000000
     47497      7733  TIP3      OH2            22.9080107669        2.5129473530      -37.8379774891  TIP3      7533            0.0000000000
     47498      7733  TIP3      H1             22.4979340880        3.0101917931      -38.5749366633  TIP3      7533            0.0000000000
     47499      7733  TIP3      H2             22.2135329720        2.6463909655      -37.1567950646  TIP3      7533            0.0000000000
     47500      7734  TIP3      OH2            29.5638347125       11.9809385081      -44.2728701975  TIP3      7534            0.0000000000
     47501      7734  TIP3      H1             29.4742847105       11.9132955600      -45.2350174330  TIP3      7534            0.0000000000
     47502      7734  TIP3      H2             29.3465816734       12.9299101017      -44.1253946232  TIP3      7534            0.0000000000
     47503      7735  TIP3      OH2            24.8939990844       10.1510689422      -37.9851079613  TIP3      7535            0.0000000000
     47504      7735  TIP3      H1             24.4319711118       10.9608228341      -37.6707377365  TIP3      7535            0.0000000000
     47505      7735  TIP3      H2             25.7184655550       10.5619585479      -38.3352820738  TIP3      7535            0.0000000000
     47506      7736  TIP3      OH2            33.0820671142        3.2462428576      -41.1164765897  TIP3      7536            0.0000000000
     47507      7736  TIP3      H1             32.7524901174        2.5522844557      -40.5220629370  TIP3      7536            0.0000000000
     47508      7736  TIP3      H2             33.9245851899        3.5175114480      -40.7022903608  TIP3      7536            0.0000000000
     47509      7737  TIP3      OH2            22.3214387578        4.3782164301      -39.8081419924  TIP3      7537            0.0000000000
     47510      7737  TIP3      H1             22.9831536032        4.9804467004      -39.3874258172  TIP3      7537            0.0000000000
     47511      7737  TIP3      H2             22.8205544971        4.0529157887      -40.5899093250  TIP3      7537            0.0000000000
     47512      7738  TIP3      OH2            23.7940920299       12.3956006016      -36.8627273623  TIP3      7538            0.0000000000
     47513      7738  TIP3      H1             23.6541916484       13.0957967652      -37.5112116394  TIP3      7538            0.0000000000
     47514      7738  TIP3      H2             22.8816335000       12.3132047021      -36.4937312099  TIP3      7538            0.0000000000
     47515      7739  TIP3      OH2            19.5252202022       11.5478368007      -45.8856582588  TIP3      7539            0.0000000000
     47516      7739  TIP3      H1             19.4429198438       12.0659140504      -46.7197980399  TIP3      7539            0.0000000000
     47517      7739  TIP3      H2             19.5464106237       12.2553806957      -45.2215180089  TIP3      7539            0.0000000000
     47518      7740  TIP3      OH2            33.2121021978       13.6138212485      -39.2589809310  TIP3      7540            0.0000000000
     47519      7740  TIP3      H1             32.2886554255       13.7160651334      -38.9563770973  TIP3      7540            0.0000000000
     47520      7740  TIP3      H2             33.3925826745       14.5278333188      -39.5326122034  TIP3      7540            0.0000000000
     47521      7741  TIP3      OH2            33.6555600249        2.2432599479      -37.8496026719  TIP3      7541            0.0000000000
     47522      7741  TIP3      H1             32.8699843652        2.4866713190      -38.3835139681  TIP3      7541            0.0000000000
     47523      7741  TIP3      H2             34.4164971153        2.5068104897      -38.4142655251  TIP3      7541            0.0000000000
     47524      7742  TIP3      OH2            26.2452299670       -0.0884622417      -40.5573923488  TIP3      7542            0.0000000000
     47525      7742  TIP3      H1             25.9237864850       -0.9431128371      -40.2300382834  TIP3      7542            0.0000000000
     47526      7742  TIP3      H2             25.4602407140        0.4448891388      -40.2845246501  TIP3      7542            0.0000000000
     47527      7743  TIP3      OH2            31.3953864763       15.0903805128      -42.4450892497  TIP3      7543            0.0000000000
     47528      7743  TIP3      H1             31.5982501677       14.2326165383      -42.8905831987  TIP3      7543            0.0000000000
     47529      7743  TIP3      H2             32.2583475428       15.5349131798      -42.6267355427  TIP3      7543            0.0000000000
     47530      7744  TIP3      OH2            32.4652348213       13.0994535140      -43.9373466532  TIP3      7544            0.0000000000
     47531      7744  TIP3      H1             32.3744616343       12.3852395288      -44.5864795364  TIP3      7544            0.0000000000
     47532      7744  TIP3      H2             32.8600832472       12.6384256311      -43.1755100049  TIP3      7544            0.0000000000
     47533      7745  TIP3      OH2            34.1931309944       11.6146895067      -35.3964450564  TIP3      7545            0.0000000000
     47534      7745  TIP3      H1             34.0441168629       11.0125749983      -36.1628360413  TIP3      7545            0.0000000000
     47535      7745  TIP3      H2             34.4284486743       12.4361398101      -35.8675229793  TIP3      7545            0.0000000000
     47536      7746  TIP3      OH2            28.8152730371        8.7269226943      -45.7964589770  TIP3      7546            0.0000000000
     47537      7746  TIP3      H1             28.4073451848        9.6157383681      -45.8626076681  TIP3      7546            0.0000000000
     47538      7746  TIP3      H2             29.5719229400        8.8089682015      -46.4015305624  TIP3      7546            0.0000000000
     47539      7747  TIP3      OH2            29.2678941086        7.3877726195      -48.6492475726  TIP3      7547            0.0000000000
     47540      7747  TIP3      H1             30.0571750289        7.6724287650      -48.1182399822  TIP3      7547            0.0000000000
     47541      7747  TIP3      H2             29.5382815075        6.4793071055      -48.8776475628  TIP3      7547            0.0000000000
     47542      7748  TIP3      OH2            35.8242562781        7.9518550247      -37.4386896830  TIP3      7548            0.0000000000
     47543      7748  TIP3      H1             35.2387408665        8.7015041716      -37.6901955180  TIP3      7548            0.0000000000
     47544      7748  TIP3      H2             36.5879945686        8.1111602446      -38.0344550694  TIP3      7548            0.0000000000
     47545      7749  TIP3      OH2            32.4164008646        8.7474728924      -44.7281462037  TIP3      7549            0.0000000000
     47546      7749  TIP3      H1             31.7043754269        9.0997885487      -44.1404669135  TIP3      7549            0.0000000000
     47547      7749  TIP3      H2             33.0246184021        8.3678185200      -44.0539164990  TIP3      7549            0.0000000000
     47548      7750  TIP3      OH2            32.2900189006        7.0695537590      -35.5896494950  TIP3      7550            0.0000000000
     47549      7750  TIP3      H1             32.0641202675        7.9162911446      -35.1754518213  TIP3      7550            0.0000000000
     47550      7750  TIP3      H2             31.6690263163        7.1325910941      -36.3405534792  TIP3      7550            0.0000000000
     47551      7751  TIP3      OH2            23.8588222854        9.3236532132      -42.8112129531  TIP3      7551            0.0000000000
     47552      7751  TIP3      H1             23.5413952457        9.1257054904      -43.7172710733  TIP3      7551            0.0000000000
     47553      7751  TIP3      H2             24.4545283124        8.5605374209      -42.6462913761  TIP3      7551            0.0000000000
     47554      7752  TIP3      OH2            25.2110051959       12.6518682031      -40.1685584115  TIP3      7552            0.0000000000
     47555      7752  TIP3      H1             25.3345184769       12.5330477969      -41.1224239918  TIP3      7552            0.0000000000
     47556      7752  TIP3      H2             25.9999542612       12.2263953665      -39.7948149152  TIP3      7552            0.0000000000
     47557      7753  TIP3      OH2            24.1681605394        7.9324209422      -39.1733524393  TIP3      7553            0.0000000000
     47558      7753  TIP3      H1             24.4797692468        7.9660924157      -40.1068459333  TIP3      7553            0.0000000000
     47559      7753  TIP3      H2             24.6006197616        8.7311393970      -38.7872232171  TIP3      7553            0.0000000000
     47560      7754  TIP3      OH2            30.7368848863       13.7786060067      -38.4119121147  TIP3      7554            0.0000000000
     47561      7754  TIP3      H1             30.6149674865       14.5173426829      -37.7863108729  TIP3      7554            0.0000000000
     47562      7754  TIP3      H2             30.3674122243       13.0313099415      -37.8978054794  TIP3      7554            0.0000000000
     47563      7755  TIP3      OH2            25.3536191465       12.7132720826      -34.6295419892  TIP3      7555            0.0000000000
     47564      7755  TIP3      H1             24.6335927692       13.1708795531      -34.1180889435  TIP3      7555            0.0000000000
     47565      7755  TIP3      H2             24.8779132432       12.5934533012      -35.4840661289  TIP3      7555            0.0000000000
     47566      7756  TIP3      OH2            31.2043260086        8.1696291357      -47.0590895970  TIP3      7556            0.0000000000
     47567      7756  TIP3      H1             31.5712956744        8.2834732505      -46.1507197111  TIP3      7556            0.0000000000
     47568      7756  TIP3      H2             31.8117136503        8.7511815964      -47.5847195756  TIP3      7556            0.0000000000
     47569      7757  TIP3      OH2            22.2245917845        8.6860747795      -35.6172398895  TIP3      7557            0.0000000000
     47570      7757  TIP3      H1             22.2398767050        9.5850246273      -35.2853802045  TIP3      7557            0.0000000000
     47571      7757  TIP3      H2             21.6839083761        8.2631478678      -34.9276176317  TIP3      7557            0.0000000000
     47572      7758  TIP3      OH2            28.9591737025       14.7223317980      -44.1868921813  TIP3      7558            0.0000000000
     47573      7758  TIP3      H1             29.2937499557       14.9433698124      -43.3042367492  TIP3      7558            0.0000000000
     47574      7758  TIP3      H2             28.4260255147       15.4907305157      -44.4381441288  TIP3      7558            0.0000000000
     47575      7759  TIP3      OH2            23.5260388743       14.2836162691      -33.6133559760  TIP3      7559            0.0000000000
     47576      7759  TIP3      H1             23.4232046611       14.7586384202      -34.4645249319  TIP3      7559            0.0000000000
     47577      7759  TIP3      H2             22.5849637109       14.0632799170      -33.4159297905  TIP3      7559            0.0000000000
     47578      7760  TIP3      OH2            34.9029297362       -0.5325750178      -47.4954862678  TIP3      7560            0.0000000000
     47579      7760  TIP3      H1             33.9293960047       -0.4714331085      -47.4116317643  TIP3      7560            0.0000000000
     47580      7760  TIP3      H2             35.1689482461        0.3112472750      -47.1041552241  TIP3      7560            0.0000000000
     47581      7761  TIP3      OH2            22.8816602905        8.2504775268      -45.1808387107  TIP3      7561            0.0000000000
     47582      7761  TIP3      H1             22.3927347595        8.9581448707      -45.6378363312  TIP3      7561            0.0000000000
     47583      7761  TIP3      H2             22.5448835307        7.4489139951      -45.5953363481  TIP3      7561            0.0000000000
     47584      7762  TIP3      OH2            36.3586697811       14.3068573895      -48.4235529454  TIP3      7562            0.0000000000
     47585      7762  TIP3      H1             36.5226483725       15.2767467279      -48.3448342714  TIP3      7562            0.0000000000
     47586      7762  TIP3      H2             37.2413431522       13.9401354607      -48.2668649329  TIP3      7562            0.0000000000
     47587      7763  TIP3      OH2            19.2635007422       10.9498926781      -36.2225714734  TIP3      7563            0.0000000000
     47588      7763  TIP3      H1             18.8145013835       10.8779062300      -37.0749070608  TIP3      7563            0.0000000000
     47589      7763  TIP3      H2             19.6484852354       10.0425042990      -36.1806132005  TIP3      7563            0.0000000000
     47590      7764  TIP3      OH2            18.9614969482       13.6137950579      -39.7080243389  TIP3      7564            0.0000000000
     47591      7764  TIP3      H1             19.9116640738       13.4281199596      -39.6868387451  TIP3      7564            0.0000000000
     47592      7764  TIP3      H2             18.9132285600       14.3806445300      -39.1260882155  TIP3      7564            0.0000000000
     47593      7765  TIP3      OH2            36.8623778246       14.3748141069      -34.0067057532  TIP3      7565            0.0000000000
     47594      7765  TIP3      H1             36.8143514320       13.4162848411      -34.1099184759  TIP3      7565            0.0000000000
     47595      7765  TIP3      H2             36.1279427035       14.4948768307      -33.3659014591  TIP3      7565            0.0000000000
     47596      7766  TIP3      OH2            27.8588036087       13.6712902816      -34.8472591843  TIP3      7566            0.0000000000
     47597      7766  TIP3      H1             28.0433243838       14.4990365503      -34.3719023125  TIP3      7566            0.0000000000
     47598      7766  TIP3      H2             26.8985670986       13.5046542650      -34.6929553481  TIP3      7566            0.0000000000
     47599      7767  TIP3      OH2            28.3532582606       17.4786886013      -45.4599515809  TIP3      7567            0.0000000000
     47600      7767  TIP3      H1             28.4898499605       17.6905526160      -46.4037129288  TIP3      7567            0.0000000000
     47601      7767  TIP3      H2             28.3550041577       18.3774658019      -45.0583051941  TIP3      7567            0.0000000000
     47602      7768  TIP3      OH2            22.0841982862       16.2342350551      -43.2644476622  TIP3      7568            0.0000000000
     47603      7768  TIP3      H1             22.3712002104       16.0023228197      -42.3500928871  TIP3      7568            0.0000000000
     47604      7768  TIP3      H2             21.1823626042       15.8651024137      -43.2726854220  TIP3      7568            0.0000000000
     47605      7769  TIP3      OH2            31.1660266640       17.3496574859      -48.0444007972  TIP3      7569            0.0000000000
     47606      7769  TIP3      H1             31.5793225894       16.5318340874      -48.3899700702  TIP3      7569            0.0000000000
     47607      7769  TIP3      H2             31.3565301247       17.3088069792      -47.0967611276  TIP3      7569            0.0000000000
     47608      7770  TIP3      OH2            31.0241548614       16.6050693441      -45.3513447360  TIP3      7570            0.0000000000
     47609      7770  TIP3      H1             30.0774455355       16.6531181686      -45.1293863872  TIP3      7570            0.0000000000
     47610      7770  TIP3      H2             31.3543949438       15.9098055199      -44.7627284754  TIP3      7570            0.0000000000
     47611      7771  TIP3      OH2            33.8776317514        5.9516599123      -33.4416421696  TIP3      7571            0.0000000000
     47612      7771  TIP3      H1             33.1701573418        6.1237589080      -34.1021018848  TIP3      7571            0.0000000000
     47613      7771  TIP3      H2             33.9884560266        4.9870197265      -33.5230326718  TIP3      7571            0.0000000000
     47614      7772  TIP3      OH2            21.4137449170       12.3081896775      -35.5386357879  TIP3      7572            0.0000000000
     47615      7772  TIP3      H1             21.4650439990       11.9958307526      -34.6124907504  TIP3      7572            0.0000000000
     47616      7772  TIP3      H2             20.5541271700       11.9144962457      -35.8085205782  TIP3      7572            0.0000000000
     47617      7773  TIP3      OH2            23.9996891599        0.8416482034      -39.5387222461  TIP3      7573            0.0000000000
     47618      7773  TIP3      H1             23.1221425251        0.8296425725      -39.9518536342  TIP3      7573            0.0000000000
     47619      7773  TIP3      H2             23.7932115644        1.3674836328      -38.7383902081  TIP3      7573            0.0000000000
     47620      7774  TIP3      OH2            28.9178581510        0.3302116821      -36.1738090616  TIP3      7574            0.0000000000
     47621      7774  TIP3      H1             29.1171115707       -0.3381970974      -35.4950736642  TIP3      7574            0.0000000000
     47622      7774  TIP3      H2             27.9369941092        0.2915691984      -36.2635000895  TIP3      7574            0.0000000000
     47623      7775  TIP3      OH2            31.7023063155        4.1386828298      -35.3121900725  TIP3      7575            0.0000000000
     47624      7775  TIP3      H1             31.1188862046        3.8375898427      -34.5675970223  TIP3      7575            0.0000000000
     47625      7775  TIP3      H2             31.4595394611        5.0771479632      -35.3625261268  TIP3      7575            0.0000000000
     47626      7776  TIP3      OH2            32.7543978413        9.4851030098      -48.6679320742  TIP3      7576            0.0000000000
     47627      7776  TIP3      H1             32.3007513378        9.5627604919      -49.5494269733  TIP3      7576            0.0000000000
     47628      7776  TIP3      H2             33.6814572395        9.5069486167      -48.9987428521  TIP3      7576            0.0000000000
     47629      7777  TIP3      OH2            28.4887892470        3.0475177467      -48.6135147830  TIP3      7577            0.0000000000
     47630      7777  TIP3      H1             28.0320260740        2.7414799461      -47.8012602733  TIP3      7577            0.0000000000
     47631      7777  TIP3      H2             27.8713724577        2.7143165390      -49.2763449667  TIP3      7577            0.0000000000
     47632      7778  TIP3      OH2            24.1133990481        5.5681334115      -38.1098448597  TIP3      7578            0.0000000000
     47633      7778  TIP3      H1             23.3118778384        5.5697948281      -37.5542953530  TIP3      7578            0.0000000000
     47634      7778  TIP3      H2             24.0740949322        6.4848212078      -38.4842848650  TIP3      7578            0.0000000000
     47635      7779  TIP3      OH2            24.0431372404        5.3918683401      -43.4515531856  TIP3      7579            0.0000000000
     47636      7779  TIP3      H1             23.0827304516        5.4776032402      -43.5649684851  TIP3      7579            0.0000000000
     47637      7779  TIP3      H2             24.3530140277        5.1768327248      -44.3624018148  TIP3      7579            0.0000000000
     47638      7780  TIP3      OH2            29.8405158599        6.6724841408      -44.2639264126  TIP3      7580            0.0000000000
     47639      7780  TIP3      H1             29.3776165906        7.3587721834      -44.7926591951  TIP3      7580            0.0000000000
     47640      7780  TIP3      H2             30.3938996345        6.2555731279      -44.9494496417  TIP3      7580            0.0000000000
     47641      7781  TIP3      OH2            28.2057005347        6.4459549563      -33.0087427872  TIP3      7581            0.0000000000
     47642      7781  TIP3      H1             27.8907377252        5.5821222853      -32.7034546531  TIP3      7581            0.0000000000
     47643      7781  TIP3      H2             29.0570506200        6.5067483914      -32.5441006038  TIP3      7581            0.0000000000
     47644      7782  TIP3      OH2            30.5903851101        6.0740874608      -41.6056721505  TIP3      7582            0.0000000000
     47645      7782  TIP3      H1             30.4228451295        6.9220356588      -42.0644985836  TIP3      7582            0.0000000000
     47646      7782  TIP3      H2             30.6281001729        5.4966292502      -42.3824485864  TIP3      7582            0.0000000000
     47647      7783  TIP3      OH2            21.6626212001        5.6421985410      -36.8440756400  TIP3      7583            0.0000000000
     47648      7783  TIP3      H1             21.9059219982        6.0237109003      -35.9862119195  TIP3      7583            0.0000000000
     47649      7783  TIP3      H2             21.3517555909        4.7463827097      -36.6000378452  TIP3      7583            0.0000000000
     47650      7784  TIP3      OH2            25.0332770412        3.0921711804      -49.4931278046  TIP3      7584            0.0000000000
     47651      7784  TIP3      H1             24.5680380030        2.9687994270      -48.6419687860  TIP3      7584            0.0000000000
     47652      7784  TIP3      H2             24.3282146019        3.3792264261      -50.0836355012  TIP3      7584            0.0000000000
     47653      7785  TIP3      OH2            18.4344958100        2.9779907683      -42.4355612199  TIP3      7585            0.0000000000
     47654      7785  TIP3      H1             19.1137772258        2.9435480835      -41.7386983706  TIP3      7585            0.0000000000
     47655      7785  TIP3      H2             18.9480432596        2.8889686612      -43.2470387019  TIP3      7585            0.0000000000
     47656      7786  TIP3      OH2            19.6922291238        3.5496759311      -47.1476366740  TIP3      7586            0.0000000000
     47657      7786  TIP3      H1             20.4363544401        4.0912399336      -47.4852048906  TIP3      7586            0.0000000000
     47658      7786  TIP3      H2             19.0446015241        4.2771261524      -47.0126760411  TIP3      7586            0.0000000000
     47659      7787  TIP3      OH2            29.8140560386        7.4363440986      -37.2618436456  TIP3      7587            0.0000000000
     47660      7787  TIP3      H1             30.2599489621        6.7390451219      -37.7972048883  TIP3      7587            0.0000000000
     47661      7787  TIP3      H2             29.2531976863        6.8816564153      -36.6685950301  TIP3      7587            0.0000000000
     47662      7788  TIP3      OH2            26.8840277574        3.0899483124      -42.2825427177  TIP3      7588            0.0000000000
     47663      7788  TIP3      H1             25.9330948501        3.2031242338      -42.1211762445  TIP3      7588            0.0000000000
     47664      7788  TIP3      H2             27.2186522111        2.7526948039      -41.4375495002  TIP3      7588            0.0000000000
     47665      7789  TIP3      OH2            21.2010303544        4.7484464874      -43.2543759410  TIP3      7589            0.0000000000
     47666      7789  TIP3      H1             20.4985067119        5.0708298452      -43.8561402686  TIP3      7589            0.0000000000
     47667      7789  TIP3      H2             21.5154987965        3.9126045883      -43.6461742911  TIP3      7589            0.0000000000
     47668      7790  TIP3      OH2            25.1338935256        4.9727325437      -45.8738520039  TIP3      7590            0.0000000000
     47669      7790  TIP3      H1             26.0659548053        5.2134624231      -45.8420285509  TIP3      7590            0.0000000000
     47670      7790  TIP3      H2             24.7533293625        5.6513056501      -46.4827695563  TIP3      7590            0.0000000000
     47671      7791  TIP3      OH2            31.2029800642        2.4687792661      -39.2230630239  TIP3      7591            0.0000000000
     47672      7791  TIP3      H1             30.5513311270        2.4668533371      -38.5051432889  TIP3      7591            0.0000000000
     47673      7791  TIP3      H2             30.6216022214        2.1464688446      -39.9390400318  TIP3      7591            0.0000000000
     47674      7792  TIP3      OH2            23.7016233062        6.3047340561      -47.7882890613  TIP3      7592            0.0000000000
     47675      7792  TIP3      H1             22.9374999497        5.9627603643      -48.2882404768  TIP3      7592            0.0000000000
     47676      7792  TIP3      H2             24.3795907232        6.3849076425      -48.4886161819  TIP3      7592            0.0000000000
     47677      7793  TIP3      OH2            34.1063361015       17.9249622730      -32.5766899419  TIP3      7593            0.0000000000
     47678      7793  TIP3      H1             34.4450286268       18.3967297512      -33.3696116025  TIP3      7593            0.0000000000
     47679      7793  TIP3      H2             34.8432130980       18.0622654903      -31.9543374015  TIP3      7593            0.0000000000
     47680      7794  TIP3      OH2            21.5364020792       10.9379026698      -33.1436554573  TIP3      7594            0.0000000000
     47681      7794  TIP3      H1             22.3185741734       11.1643766262      -32.5974932660  TIP3      7594            0.0000000000
     47682      7794  TIP3      H2             20.8876169593       10.6387116608      -32.4783533754  TIP3      7594            0.0000000000
     47683      7795  TIP3      OH2            27.6990118260        5.9179397258      -40.5862995675  TIP3      7595            0.0000000000
     47684      7795  TIP3      H1             28.5662968852        5.7560791308      -40.9841156119  TIP3      7595            0.0000000000
     47685      7795  TIP3      H2             27.5620146655        5.1231421064      -40.0485452727  TIP3      7595            0.0000000000
     47686      7796  TIP3      OH2            22.3983964529        2.0035811010      -44.0259761929  TIP3      7596            0.0000000000
     47687      7796  TIP3      H1             21.7484016861        1.3750484996      -43.6303704280  TIP3      7596            0.0000000000
     47688      7796  TIP3      H2             22.8902461383        1.3982118677      -44.6066631208  TIP3      7596            0.0000000000
     47689      7797  TIP3      OH2            26.4229248250        4.2069450334      -38.0640156222  TIP3      7597            0.0000000000
     47690      7797  TIP3      H1             25.6131237192        4.7704681995      -38.0677076806  TIP3      7597            0.0000000000
     47691      7797  TIP3      H2             27.0588840436        4.7825896811      -37.6218714634  TIP3      7597            0.0000000000
     47692      7798  TIP3      OH2            27.0680965158       10.9522397044      -46.1407426360  TIP3      7598            0.0000000000
     47693      7798  TIP3      H1             26.3421863801       10.3954285640      -46.4999352896  TIP3      7598            0.0000000000
     47694      7798  TIP3      H2             26.7013349153       11.0960981177      -45.2392654802  TIP3      7598            0.0000000000
     47695      7799  TIP3      OH2            34.2405923295       10.2124746611      -37.7249195328  TIP3      7599            0.0000000000
     47696      7799  TIP3      H1             34.8215989565       10.5895440752      -38.4096637827  TIP3      7599            0.0000000000
     47697      7799  TIP3      H2             33.4122786924       10.0814898095      -38.2352783927  TIP3      7599            0.0000000000
     47698      7800  TIP3      OH2            31.0083647349        3.5978763461      -47.9939824338  TIP3      7600            0.0000000000
     47699      7800  TIP3      H1             30.0386065793        3.5251436751      -48.1219420797  TIP3      7600            0.0000000000
     47700      7800  TIP3      H2             31.0746607244        4.5027989122      -47.6279261732  TIP3      7600            0.0000000000
     47701      7801  TIP3      OH2            28.2782280162       10.9702721473      -34.6385104146  TIP3      7601            0.0000000000
     47702      7801  TIP3      H1             27.8457766767       10.8649525671      -33.7691393196  TIP3      7601            0.0000000000
     47703      7801  TIP3      H2             28.1729314830       11.9360069354      -34.7428077062  TIP3      7601            0.0000000000
     47704      7802  TIP3      OH2            31.5742932678        5.6056327679      -46.3982807114  TIP3      7602            0.0000000000
     47705      7802  TIP3      H1             32.4975453061        5.4421165364      -46.1172195570  TIP3      7602            0.0000000000
     47706      7802  TIP3      H2             31.6502648162        6.4840369835      -46.8143988875  TIP3      7602            0.0000000000
     47707      7803  TIP3      OH2            22.3519197902       10.2051243965      -40.4875883819  TIP3      7603            0.0000000000
     47708      7803  TIP3      H1             22.8705217530        9.9629929021      -41.2844702973  TIP3      7603            0.0000000000
     47709      7803  TIP3      H2             22.3256544844        9.3776189239      -39.9840723863  TIP3      7603            0.0000000000
     47710      7804  TIP3      OH2            29.3135213079       12.0036646676      -47.1179184900  TIP3      7604            0.0000000000
     47711      7804  TIP3      H1             29.2115111513       12.9596498259      -46.9963387261  TIP3      7604            0.0000000000
     47712      7804  TIP3      H2             28.4059169586       11.6940490126      -46.9006601252  TIP3      7604            0.0000000000
     47713      7805  TIP3      OH2            19.4002744544        8.3088587062      -35.5489006564  TIP3      7605            0.0000000000
     47714      7805  TIP3      H1             19.1691656193        7.9423086702      -34.6771355411  TIP3      7605            0.0000000000
     47715      7805  TIP3      H2             18.7631439446        7.8893999734      -36.1562220948  TIP3      7605            0.0000000000
     47716      7806  TIP3      OH2            26.0524671931        8.1206390773      -33.4309351553  TIP3      7606            0.0000000000
     47717      7806  TIP3      H1             25.7155942492        7.7476964532      -34.2612451763  TIP3      7606            0.0000000000
     47718      7806  TIP3      H2             26.9284082543        7.6735707234      -33.3593349314  TIP3      7606            0.0000000000
     47719      7807  TIP3      OH2            31.1322116371       13.2909603665      -34.8469892683  TIP3      7607            0.0000000000
     47720      7807  TIP3      H1             30.3170108122       13.3838972638      -35.3552278238  TIP3      7607            0.0000000000
     47721      7807  TIP3      H2             30.8338503191       13.6416458603      -33.9796670416  TIP3      7607            0.0000000000
     47722      7808  TIP3      OH2            36.2033135412        5.7005835074      -46.5067529805  TIP3      7608            0.0000000000
     47723      7808  TIP3      H1             35.7116515391        5.2554132775      -47.2361554485  TIP3      7608            0.0000000000
     47724      7808  TIP3      H2             36.2814527108        6.5763809139      -46.9333346267  TIP3      7608            0.0000000000
     47725      7809  TIP3      OH2            36.4646978871       11.3300989835      -34.0590430290  TIP3      7609            0.0000000000
     47726      7809  TIP3      H1             35.5538190367       11.5131785337      -34.3948149590  TIP3      7609            0.0000000000
     47727      7809  TIP3      H2             36.9692101104       11.2295053342      -34.8974737959  TIP3      7609            0.0000000000
     47728      7810  TIP3      OH2            34.8405302285       14.0348629390      -46.1851854605  TIP3      7610            0.0000000000
     47729      7810  TIP3      H1             34.0870349645       13.4436496996      -46.1819574797  TIP3      7610            0.0000000000
     47730      7810  TIP3      H2             35.2417791016       13.9096179072      -47.0689325607  TIP3      7610            0.0000000000
     47731      7811  TIP3      OH2            32.2319180434        9.4841550326      -39.5459359289  TIP3      7611            0.0000000000
     47732      7811  TIP3      H1             31.3311054758        9.4796732466      -39.8989956390  TIP3      7611            0.0000000000
     47733      7811  TIP3      H2             32.5187126484        8.6168667415      -39.9198073459  TIP3      7611            0.0000000000
     47734      7812  TIP3      OH2            24.4040754904       13.5831471485      -42.9571630666  TIP3      7612            0.0000000000
     47735      7812  TIP3      H1             24.6588193719       14.4746063986      -43.2889272331  TIP3      7612            0.0000000000
     47736      7812  TIP3      H2             23.4699314028       13.5840874920      -43.2128869413  TIP3      7612            0.0000000000
     47737      7813  TIP3      OH2            20.5473560283        8.0154277377      -48.8350012565  TIP3      7613            0.0000000000
     47738      7813  TIP3      H1             21.0644669893        8.6770183561      -48.3463755049  TIP3      7613            0.0000000000
     47739      7813  TIP3      H2             19.6524971888        8.1518551802      -48.4427669682  TIP3      7613            0.0000000000
     47740      7814  TIP3      OH2            25.9124056256       11.1986681138      -43.6002677793  TIP3      7614            0.0000000000
     47741      7814  TIP3      H1             25.3902794765       12.0177000004      -43.4615793474  TIP3      7614            0.0000000000
     47742      7814  TIP3      H2             25.4914255501       10.5420905389      -43.0117273009  TIP3      7614            0.0000000000
     47743      7815  TIP3      OH2            26.5477563870       15.3367737043      -36.8317322902  TIP3      7615            0.0000000000
     47744      7815  TIP3      H1             27.1765516694       16.0243696828      -37.1128922524  TIP3      7615            0.0000000000
     47745      7815  TIP3      H2             27.1009608091       14.8619534398      -36.1782348450  TIP3      7615            0.0000000000
     47746      7816  TIP3      OH2            24.6858109823       16.0490734906      -44.0757831106  TIP3      7616            0.0000000000
     47747      7816  TIP3      H1             23.7333394442       16.2105588245      -43.8821006685  TIP3      7616            0.0000000000
     47748      7816  TIP3      H2             25.0374519624       16.9385932822      -43.8455659027  TIP3      7616            0.0000000000
     47749      7817  TIP3      OH2            29.5482578260       11.2244242402      -37.3744520102  TIP3      7617            0.0000000000
     47750      7817  TIP3      H1             29.0819085480       10.9624223864      -36.5520211778  TIP3      7617            0.0000000000
     47751      7817  TIP3      H2             29.9928288197       10.3925928989      -37.6032011522  TIP3      7617            0.0000000000
     47752      7818  TIP3      OH2            32.3015301155       12.5372066161      -48.5267500881  TIP3      7618            0.0000000000
     47753      7818  TIP3      H1             32.6834737346       12.0338263472      -47.7847646595  TIP3      7618            0.0000000000
     47754      7818  TIP3      H2             31.3866347270       12.2119245068      -48.4805398948  TIP3      7618            0.0000000000
     47755      7819  TIP3      OH2            32.7895714922       15.7856980573      -35.2033974914  TIP3      7619            0.0000000000
     47756      7819  TIP3      H1             31.9662932377       15.2551403463      -35.2312708298  TIP3      7619            0.0000000000
     47757      7819  TIP3      H2             32.7871329004       16.3053776664      -36.0373719733  TIP3      7619            0.0000000000
     47758      7820  TIP3      OH2            36.9568730855       16.9123446112      -48.5123642825  TIP3      7620            0.0000000000
     47759      7820  TIP3      H1             37.5692713606       17.6497600456      -48.5522305350  TIP3      7620            0.0000000000
     47760      7820  TIP3      H2             36.1412704652       17.3461856261      -48.1732521145  TIP3      7620            0.0000000000
     47761      7821  TIP3      OH2            20.9931721701        3.1334153909      -35.8061549183  TIP3      7621            0.0000000000
     47762      7821  TIP3      H1             20.4345930633        3.6730978902      -35.2178236268  TIP3      7621            0.0000000000
     47763      7821  TIP3      H2             21.0047449437        2.2968990393      -35.3071703760  TIP3      7621            0.0000000000
     47764      7822  TIP3      OH2            33.2553563869       11.1460237508      -46.2947087890  TIP3      7622            0.0000000000
     47765      7822  TIP3      H1             32.9609600340       10.2238063580      -46.2927692468  TIP3      7622            0.0000000000
     47766      7822  TIP3      H2             34.2235082823       11.0282555076      -46.2659024691  TIP3      7622            0.0000000000
     47767      7823  TIP3      OH2            20.6052204691       15.0669433709      -37.4007108777  TIP3      7623            0.0000000000
     47768      7823  TIP3      H1             21.1124665691       14.2567161167      -37.2264361160  TIP3      7623            0.0000000000
     47769      7823  TIP3      H2             20.6604425209       15.4917550791      -36.5305784233  TIP3      7623            0.0000000000
     47770      7824  TIP3      OH2            24.8792205954       12.9572728338      -47.4557446741  TIP3      7624            0.0000000000
     47771      7824  TIP3      H1             25.7240885187       12.6423718133      -47.1052838644  TIP3      7624            0.0000000000
     47772      7824  TIP3      H2             24.9330528989       13.9170983549      -47.2042131639  TIP3      7624            0.0000000000
     47773      7825  TIP3      OH2            21.6320923480       10.2077663354      -47.0729152140  TIP3      7625            0.0000000000
     47774      7825  TIP3      H1             20.8497325472       10.6437621661      -46.6626249270  TIP3      7625            0.0000000000
     47775      7825  TIP3      H2             22.0851902134       10.9874260778      -47.4495448848  TIP3      7625            0.0000000000
     47776      7826  TIP3      OH2            29.3704302684        3.1450983862      -36.5358051916  TIP3      7626            0.0000000000
     47777      7826  TIP3      H1             30.2602861849        3.2326603712      -36.1581134819  TIP3      7626            0.0000000000
     47778      7826  TIP3      H2             29.1574192668        2.2180090786      -36.3222091821  TIP3      7626            0.0000000000
     47779      7827  TIP3      OH2            30.4419415134        2.2096539814      -45.4694832692  TIP3      7627            0.0000000000
     47780      7827  TIP3      H1             30.6100304319        2.8698176346      -46.1704904685  TIP3      7627            0.0000000000
     47781      7827  TIP3      H2             30.9794059637        2.5549990771      -44.7221405662  TIP3      7627            0.0000000000
     47782      7828  TIP3      OH2            28.0013504956       14.6901786702      -47.2858719776  TIP3      7628            0.0000000000
     47783      7828  TIP3      H1             27.2477863186       14.8942549871      -46.7118906931  TIP3      7628            0.0000000000
     47784      7828  TIP3      H2             28.3930402980       15.5793664506      -47.3815053195  TIP3      7628            0.0000000000
     47785      7829  TIP3      OH2            27.9748012681        4.3218689875      -44.4683459089  TIP3      7629            0.0000000000
     47786      7829  TIP3      H1             28.3738798245        5.1927819587      -44.3063475267  TIP3      7629            0.0000000000
     47787      7829  TIP3      H2             27.6881848896        4.0034936978      -43.5857160479  TIP3      7629            0.0000000000
     47788      7830  TIP3      OH2            28.5239730562        5.5715886650      -35.7577345367  TIP3      7630            0.0000000000
     47789      7830  TIP3      H1             28.4870187904        5.6647355456      -34.7839817309  TIP3      7630            0.0000000000
     47790      7830  TIP3      H2             28.8622861153        4.6604016921      -35.9133336679  TIP3      7630            0.0000000000
     47791      7831  TIP3      OH2            28.3302120003        1.0957891423      -44.0760099341  TIP3      7631            0.0000000000
     47792      7831  TIP3      H1             27.7872257671        1.7817740979      -43.6531331755  TIP3      7631            0.0000000000
     47793      7831  TIP3      H2             29.1458770413        1.5790342733      -44.3419321808  TIP3      7631            0.0000000000
     47794      7832  TIP3      OH2            25.2692288126       15.4614763685      -46.7013381250  TIP3      7632            0.0000000000
     47795      7832  TIP3      H1             25.4885869035       16.3166024010      -47.1369908187  TIP3      7632            0.0000000000
     47796      7832  TIP3      H2             25.0002331384       15.7635733230      -45.8080832842  TIP3      7632            0.0000000000
     47797      7833  TIP3      OH2            24.0339899585        2.4256843304      -47.0164879489  TIP3      7633            0.0000000000
     47798      7833  TIP3      H1             23.9398762074        3.2373783217      -46.4982651169  TIP3      7633            0.0000000000
     47799      7833  TIP3      H2             24.9586744974        2.2092017676      -46.8103249806  TIP3      7633            0.0000000000
     47800      7834  TIP3      OH2            34.1217861383        3.0104943476      -34.4796210392  TIP3      7634            0.0000000000
     47801      7834  TIP3      H1             33.2578306203        3.2191317887      -34.8897145050  TIP3      7634            0.0000000000
     47802      7834  TIP3      H2             34.7522660171        3.1994339299      -35.2096028289  TIP3      7634            0.0000000000
     47803      7835  TIP3      OH2            32.8312941763        7.1831016524      -40.7486689154  TIP3      7635            0.0000000000
     47804      7835  TIP3      H1             32.0207731171        6.6431704334      -40.8798551552  TIP3      7635            0.0000000000
     47805      7835  TIP3      H2             33.3901983106        6.5463189657      -40.2387295879  TIP3      7635            0.0000000000
     47806      7836  TIP3      OH2            22.3515533154       12.6282941587      -48.1708325098  TIP3      7636            0.0000000000
     47807      7836  TIP3      H1             23.2440228909       12.8381432365      -47.8020442666  TIP3      7636            0.0000000000
     47808      7836  TIP3      H2             22.5734860430       12.5419122060      -49.1138467733  TIP3      7636            0.0000000000
     47809      7837  TIP3      OH2            20.8909979574        5.3778662435      -48.6323572041  TIP3      7637            0.0000000000
     47810      7837  TIP3      H1             20.8917949177        6.3605782431      -48.6270331347  TIP3      7637            0.0000000000
     47811      7837  TIP3      H2             20.1621289190        5.2068749329      -49.2552359203  TIP3      7637            0.0000000000
     47812      7838  TIP3      OH2            34.2157729722       16.1569176641      -39.1739305534  TIP3      7638            0.0000000000
     47813      7838  TIP3      H1             34.0542385018       16.8687849680      -39.8397327642  TIP3      7638            0.0000000000
     47814      7838  TIP3      H2             35.1802241094       16.1998398375      -39.0405990419  TIP3      7638            0.0000000000
     47815      7839  TIP3      OH2            21.3954861251        0.2986416593      -40.1272014321  TIP3      7639            0.0000000000
     47816      7839  TIP3      H1             21.3978425723        0.0211362068      -41.0662792349  TIP3      7639            0.0000000000
     47817      7839  TIP3      H2             21.1602424179       -0.5291894208      -39.6614245687  TIP3      7639            0.0000000000
     47818      7840  TIP3      OH2            20.0391397556       14.1687148853      -44.0879091227  TIP3      7640            0.0000000000
     47819      7840  TIP3      H1             19.2786387007       14.7689848748      -44.0927554649  TIP3      7640            0.0000000000
     47820      7840  TIP3      H2             20.4657937442       14.4553326769      -44.9042310425  TIP3      7640            0.0000000000
     47821      7841  TIP3      OH2            19.4314426138       16.9517042684      -33.0361014697  TIP3      7641            0.0000000000
     47822      7841  TIP3      H1             20.0810011630       16.8453451342      -32.3118040950  TIP3      7641            0.0000000000
     47823      7841  TIP3      H2             19.0978286388       16.0301472393      -33.1040515765  TIP3      7641            0.0000000000
     47824      7842  TIP3      OH2            24.4574274110       15.9871789075      -31.4517037195  TIP3      7642            0.0000000000
     47825      7842  TIP3      H1             25.2331576798       15.6062482566      -30.9971258037  TIP3      7642            0.0000000000
     47826      7842  TIP3      H2             24.3283941147       15.3978779788      -32.2069720163  TIP3      7642            0.0000000000
     47827      7843  TIP3      OH2            28.3668607895       15.1070469774      -50.1538203886  TIP3      7643            0.0000000000
     47828      7843  TIP3      H1             27.6922461018       14.6107060091      -49.6638024340  TIP3      7643            0.0000000000
     47829      7843  TIP3      H2             29.1627368307       14.8519807042      -49.6655759317  TIP3      7643            0.0000000000
     47830      7844  TIP3      OH2            30.6091574206       14.6954590118      -32.4619723415  TIP3      7644            0.0000000000
     47831      7844  TIP3      H1             30.2983839649       13.8172243385      -32.1305574198  TIP3      7644            0.0000000000
     47832      7844  TIP3      H2             31.4537949215       14.7852929077      -31.9844460280  TIP3      7644            0.0000000000
     47833      7845  TIP3      OH2            32.1737879854       15.1289792463      -49.2367488386  TIP3      7645            0.0000000000
     47834      7845  TIP3      H1             32.4054990363       14.2176349245      -48.9652684356  TIP3      7645            0.0000000000
     47835      7845  TIP3      H2             32.9671225106       15.4632228012      -49.7143966148  TIP3      7645            0.0000000000
     47836      7846  TIP3      OH2            19.1040770427       10.6466773207      -31.8038750459  TIP3      7646            0.0000000000
     47837      7846  TIP3      H1             18.6943998765        9.7780275321      -31.6733911464  TIP3      7646            0.0000000000
     47838      7846  TIP3      H2             18.7066571601       10.9323430511      -32.6588170632  TIP3      7646            0.0000000000
     47839      7847  TIP3      OH2            24.1134842538       10.3062834488      -49.5026561425  TIP3      7647            0.0000000000
     47840      7847  TIP3      H1             23.9131254312       10.2333713436      -48.5515706619  TIP3      7647            0.0000000000
     47841      7847  TIP3      H2             24.9922212936       10.7124300735      -49.4310239109  TIP3      7647            0.0000000000
     47842      7848  TIP3      OH2            26.0976979189       10.8167775614      -32.7961782428  TIP3      7648            0.0000000000
     47843      7848  TIP3      H1             25.9290506640       11.3744532391      -33.5885385814  TIP3      7648            0.0000000000
     47844      7848  TIP3      H2             25.9723508308        9.9031738002      -33.1397824322  TIP3      7648            0.0000000000
     47845      7849  TIP3      OH2            31.8885951905       10.4256316654      -34.8741505601  TIP3      7649            0.0000000000
     47846      7849  TIP3      H1             32.8333732904       10.6898124831      -34.8054655286  TIP3      7649            0.0000000000
     47847      7849  TIP3      H2             31.5082173613       11.3215119369      -34.7424537548  TIP3      7649            0.0000000000
     47848      7850  TIP3      OH2            20.8233219082        7.8072449251      -32.4889959234  TIP3      7650            0.0000000000
     47849      7850  TIP3      H1             20.8707250013        6.9513094021      -32.0291973307  TIP3      7650            0.0000000000
     47850      7850  TIP3      H2             20.7031763974        8.3927855671      -31.7244900964  TIP3      7650            0.0000000000
     47851      7851  TIP3      OH2            25.1882956747        9.1902302164      -47.0883308054  TIP3      7651            0.0000000000
     47852      7851  TIP3      H1             24.4845066145        8.6718016975      -46.6601763568  TIP3      7651            0.0000000000
     47853      7851  TIP3      H2             25.5769053525        8.5532292512      -47.7205966117  TIP3      7651            0.0000000000
     47854      7852  TIP3      OH2            24.0675932542        6.8638680459      -35.5272827541  TIP3      7652            0.0000000000
     47855      7852  TIP3      H1             23.4360592724        7.6051558986      -35.6539257034  TIP3      7652            0.0000000000
     47856      7852  TIP3      H2             24.8063473449        7.2138669219      -36.0583003744  TIP3      7652            0.0000000000
     47857      7853  TIP3      OH2            26.5096515649        7.4262159075      -48.9916628259  TIP3      7653            0.0000000000
     47858      7853  TIP3      H1             26.6762981364        7.1359834230      -49.8982964549  TIP3      7653            0.0000000000
     47859      7853  TIP3      H2             27.4279613338        7.4545604960      -48.6246821943  TIP3      7653            0.0000000000
     47860      7854  TIP3      OH2            29.3911850984        9.4085046207      -31.4574513699  TIP3      7654            0.0000000000
     47861      7854  TIP3      H1             30.0009215104        9.3057002387      -32.2110385610  TIP3      7654            0.0000000000
     47862      7854  TIP3      H2             29.6375842501        8.6565070087      -30.9046604479  TIP3      7654            0.0000000000
     47863      7855  TIP3      OH2            35.1569205767        9.1006918055       50.0828800755  TIP3      7655            0.0000000000
     47864      7855  TIP3      H1             35.5626944053        8.3325128821       49.6494088043  TIP3      7655            0.0000000000
     47865      7855  TIP3      H2             35.7649889447        9.8108734514       49.7721984352  TIP3      7655            0.0000000000
     47866      7856  TIP3      OH2            24.9921578412        4.5012847280      -34.4481329768  TIP3      7656            0.0000000000
     47867      7856  TIP3      H1             25.0736121234        3.8807257230      -35.1978129596  TIP3      7656            0.0000000000
     47868      7856  TIP3      H2             24.6210650614        5.3024510773      -34.8831514832  TIP3      7656            0.0000000000
     47869      7857  TIP3      OH2            25.1592281969        2.4733078426      -36.4123787842  TIP3      7657            0.0000000000
     47870      7857  TIP3      H1             25.6858229218        2.9461297893      -37.1041182797  TIP3      7657            0.0000000000
     47871      7857  TIP3      H2             24.2596085370        2.5147457387      -36.7992477637  TIP3      7657            0.0000000000
     47872      7858  TIP3      OH2            26.2754071885        8.3442897514      -36.3289752991  TIP3      7658            0.0000000000
     47873      7858  TIP3      H1             27.1862246201        8.5726989855      -36.5644838104  TIP3      7658            0.0000000000
     47874      7858  TIP3      H2             25.7770518899        9.0306320979      -36.8139963786  TIP3      7658            0.0000000000
     47875      7859  TIP3      OH2            30.8139363268        5.8080908170      -31.3686906373  TIP3      7659            0.0000000000
     47876      7859  TIP3      H1             30.8488147560        4.8637729890      -31.1782983891  TIP3      7659            0.0000000000
     47877      7859  TIP3      H2             31.6982451029        6.1257444681      -31.1184865771  TIP3      7659            0.0000000000
     47878      7860  TIP3      OH2            32.1973563122        8.8999951598      -32.7183610359  TIP3      7660            0.0000000000
     47879      7860  TIP3      H1             31.9378017525        9.3624161400      -33.5422515651  TIP3      7660            0.0000000000
     47880      7860  TIP3      H2             33.1123180449        8.6295056421      -32.9297979966  TIP3      7660            0.0000000000
     47881      7861  TIP3      OH2            23.4610300174        5.1226982322      -32.1452295828  TIP3      7661            0.0000000000
     47882      7861  TIP3      H1             22.5552778125        4.7600909339      -32.2547191421  TIP3      7661            0.0000000000
     47883      7861  TIP3      H2             23.8744936105        4.8153886990      -32.9747352535  TIP3      7661            0.0000000000
     47884      7862  TIP3      OH2            26.3094790478        0.0994887230      -36.6925965673  TIP3      7662            0.0000000000
     47885      7862  TIP3      H1             25.9192380563        0.9766279651      -36.4752788538  TIP3      7662            0.0000000000
     47886      7862  TIP3      H2             25.4928438334       -0.3885649285      -36.8954339595  TIP3      7662            0.0000000000
     47887      7863  TIP3      OH2            27.3209993026        3.8025545156      -32.3925010949  TIP3      7663            0.0000000000
     47888      7863  TIP3      H1             26.6321066528        3.8319879079      -31.6892139949  TIP3      7663            0.0000000000
     47889      7863  TIP3      H2             26.7650703185        3.9158154261      -33.1892614462  TIP3      7663            0.0000000000
     47890      7864  TIP3      OH2            30.0856643876        3.3626405452      -33.3452125188  TIP3      7664            0.0000000000
     47891      7864  TIP3      H1             29.1801989824        3.2457863929      -33.0132137990  TIP3      7664            0.0000000000
     47892      7864  TIP3      H2             30.6010863039        2.9076377999      -32.6361547678  TIP3      7664            0.0000000000
     47893      7865  TIP3      OH2            31.2146782596        2.0021254732      -31.3975899082  TIP3      7665            0.0000000000
     47894      7865  TIP3      H1             31.5280053115        1.0791640326      -31.3179239096  TIP3      7665            0.0000000000
     47895      7865  TIP3      H2             31.2166689306        2.2970535479      -30.4539897075  TIP3      7665            0.0000000000
     47896      7866  TIP3      OH2            21.3105311567        3.4382839897      -32.6109978497  TIP3      7666            0.0000000000
     47897      7866  TIP3      H1             21.1105943152        2.5648686521      -33.0156529969  TIP3      7666            0.0000000000
     47898      7866  TIP3      H2             21.1967296065        3.2069394654      -31.6540037976  TIP3      7666            0.0000000000
     47899      7867  TIP3      OH2            25.8759929375       -0.4800981795      -33.2674512870  TIP3      7667            0.0000000000
     47900      7867  TIP3      H1             26.4710216497       -1.2574819284      -33.2663009617  TIP3      7667            0.0000000000
     47901      7867  TIP3      H2             25.8556345506       -0.2541796237      -34.2103885498  TIP3      7667            0.0000000000
     47902      7868  TIP3      OH2            25.9063513746        0.6950916913      -30.8256102903  TIP3      7668            0.0000000000
     47903      7868  TIP3      H1             25.8818538430        0.2271353833      -31.7007792690  TIP3      7668            0.0000000000
     47904      7868  TIP3      H2             25.7723102099        1.6124763999      -31.1145687576  TIP3      7668            0.0000000000
     47905      7869  TIP3      OH2            25.7283720195       17.8188731091      -47.9293398529  TIP3      7669            0.0000000000
     47906      7869  TIP3      H1             26.7000453230       17.8410664418      -47.8540204400  TIP3      7669            0.0000000000
     47907      7869  TIP3      H2             25.5516556212       18.4147548219      -48.6669861093  TIP3      7669            0.0000000000
     47908      7870  TIP3      OH2            19.6016927387       12.7340724494      -48.3180198069  TIP3      7670            0.0000000000
     47909      7870  TIP3      H1             20.5858373649       12.6432701834      -48.2528888099  TIP3      7670            0.0000000000
     47910      7870  TIP3      H2             19.4202476652       12.2425871808      -49.1302810549  TIP3      7670            0.0000000000
     47911      7871  TIP3      OH2            18.3403168783       17.6704357568      -43.7952572549  TIP3      7671            0.0000000000
     47912      7871  TIP3      H1             17.5701650338       17.1378496231      -44.1061422804  TIP3      7671            0.0000000000
     47913      7871  TIP3      H2             18.6158985725       17.1513466585      -43.0098886143  TIP3      7671            0.0000000000
     47914      7872  TIP3      OH2            19.1551712092       16.0239254758      -41.7966756660  TIP3      7672            0.0000000000
     47915      7872  TIP3      H1             18.5225671347       15.3594829085      -41.4813730388  TIP3      7672            0.0000000000
     47916      7872  TIP3      H2             19.7649644024       16.1375362325      -41.0298919583  TIP3      7672            0.0000000000
     47917      7873  TIP3      OH2            37.0460298191       16.5344100320      -38.5751147101  TIP3      7673            0.0000000000
     47918      7873  TIP3      H1             37.0871524582       16.5577782427      -37.6003787108  TIP3      7673            0.0000000000
     47919      7873  TIP3      H2             36.9793059495       17.4895577753      -38.7468812590  TIP3      7673            0.0000000000
     47920      7874  TIP3      OH2            36.1905287290       16.3345886002      -35.8723074630  TIP3      7674            0.0000000000
     47921      7874  TIP3      H1             35.7288164296       15.6438444895      -36.3960912829  TIP3      7674            0.0000000000
     47922      7874  TIP3      H2             36.4926928206       15.7927025646      -35.1093455352  TIP3      7674            0.0000000000
     47923      7875  TIP3      OH2            34.7739153655       11.9917914833      -31.1359382604  TIP3      7675            0.0000000000
     47924      7875  TIP3      H1             33.9545957919       12.2000330460      -30.6448213387  TIP3      7675            0.0000000000
     47925      7875  TIP3      H2             35.1077477356       12.8714884743      -31.3638373191  TIP3      7675            0.0000000000
     47926      7876  TIP3      OH2            36.0411926459       10.5617737518      -46.0581476204  TIP3      7676            0.0000000000
     47927      7876  TIP3      H1             36.9163211326       10.9640155452      -45.9744712524  TIP3      7676            0.0000000000
     47928      7876  TIP3      H2             36.0926713842        9.8388263184      -45.4087666341  TIP3      7676            0.0000000000
     47929      7877  TIP3      OH2            36.3480781010        8.5838133591      -43.9606999723  TIP3      7677            0.0000000000
     47930      7877  TIP3      H1             35.4090163799        8.3101958587      -44.0197192102  TIP3      7677            0.0000000000
     47931      7877  TIP3      H2             36.4795338775        8.3941247112      -43.0213658918  TIP3      7677            0.0000000000
     47932      7878  TIP3      OH2            36.5467184596       10.9705821841      -39.0585049865  TIP3      7678            0.0000000000
     47933      7878  TIP3      H1             37.4811077740       10.9461908419      -39.3309388585  TIP3      7678            0.0000000000
     47934      7878  TIP3      H2             36.3997436244       11.9296844628      -39.2461455198  TIP3      7678            0.0000000000
     47935      7879  TIP3      OH2            34.7922423889       14.0820244839      -36.7258909806  TIP3      7679            0.0000000000
     47936      7879  TIP3      H1             33.9904173373       14.3789483437      -36.2626087818  TIP3      7679            0.0000000000
     47937      7879  TIP3      H2             34.4659717220       13.9615251280      -37.6401280915  TIP3      7679            0.0000000000
     47938      7880  TIP3      OH2            36.6343347533        8.5260686681      -47.7742159260  TIP3      7680            0.0000000000
     47939      7880  TIP3      H1             35.9861142276        8.7537262151      -48.4630053177  TIP3      7680            0.0000000000
     47940      7880  TIP3      H2             36.6324117444        9.3656326042      -47.2851835233  TIP3      7680            0.0000000000
     47941      7881  TIP3      OH2            34.8901686242        5.3259017840      -48.7356284820  TIP3      7681            0.0000000000
     47942      7881  TIP3      H1             34.4972411751        5.9170179787      -49.3853532054  TIP3      7681            0.0000000000
     47943      7881  TIP3      H2             34.9187098426        4.4878251986      -49.2407175809  TIP3      7681            0.0000000000
     47944      7882  TIP3      OH2            34.1136282858        7.3871322663      -43.1839021542  TIP3      7682            0.0000000000
     47945      7882  TIP3      H1             33.8361300762        6.5082163238      -43.5195948338  TIP3      7682            0.0000000000
     47946      7882  TIP3      H2             33.7198039254        7.4015556502      -42.2859532795  TIP3      7682            0.0000000000
     47947      7883  TIP3      OH2            19.1286215854        9.4368825102      -39.1826877965  TIP3      7683            0.0000000000
     47948      7883  TIP3      H1             19.1807264618        9.0993010156      -40.1093013694  TIP3      7683            0.0000000000
     47949      7883  TIP3      H2             20.0247371586        9.1659996619      -38.8786048530  TIP3      7683            0.0000000000
     47950      7884  TIP3      OH2            34.9826411730        8.9387304521      -33.6260027751  TIP3      7684            0.0000000000
     47951      7884  TIP3      H1             35.6520436264        8.2205051629      -33.7169419952  TIP3      7684            0.0000000000
     47952      7884  TIP3      H2             35.5078632650        9.7461954495      -33.8157436643  TIP3      7684            0.0000000000
     47953      7885  TIP3      OH2            36.4126543401        6.7339229760      -33.5115788249  TIP3      7685            0.0000000000
     47954      7885  TIP3      H1             35.4377685998        6.5959155387      -33.4254252785  TIP3      7685            0.0000000000
     47955      7885  TIP3      H2             36.7414911723        5.8641405122      -33.1698423571  TIP3      7685            0.0000000000
     47956      7886  TIP3      OH2            34.3073567045        3.1528675309      -50.1078715304  TIP3      7686            0.0000000000
     47957      7886  TIP3      H1             34.8266095868        2.4937906560      -49.6304521624  TIP3      7686            0.0000000000
     47958      7886  TIP3      H2             33.4164100280        2.9962804432      -49.7612849513  TIP3      7686            0.0000000000
     47959      7887  TIP3      OH2            33.9228334201        4.9430140630      -44.9164923942  TIP3      7687            0.0000000000
     47960      7887  TIP3      H1             33.8650033923        3.9648745836      -44.8758187445  TIP3      7687            0.0000000000
     47961      7887  TIP3      H2             34.8824920070        5.0626190644      -45.0217863712  TIP3      7687            0.0000000000
     47962      7888  TIP3      OH2            34.0993618349        5.3482874244      -39.3972132785  TIP3      7688            0.0000000000
     47963      7888  TIP3      H1             35.0767056754        5.2803537618      -39.5124906731  TIP3      7688            0.0000000000
     47964      7888  TIP3      H2             34.0614150386        5.3492144308      -38.4219544002  TIP3      7688            0.0000000000
     47965      7889  TIP3      OH2            34.4782914164        5.7848677543      -36.6836362232  TIP3      7689            0.0000000000
     47966      7889  TIP3      H1             33.6551905352        6.1617915977      -36.3045883609  TIP3      7689            0.0000000000
     47967      7889  TIP3      H2             34.9772159054        6.6145308048      -36.8669931677  TIP3      7689            0.0000000000
     47968      7890  TIP3      OH2            18.8023455457        4.2909716634      -33.3065844564  TIP3      7690            0.0000000000
     47969      7890  TIP3      H1             19.7057809876        4.2347096125      -32.9469583797  TIP3      7690            0.0000000000
     47970      7890  TIP3      H2             18.4717523197        3.3790848792      -33.1576419576  TIP3      7690            0.0000000000
     47971      7891  TIP3      OH2            36.7504287438       -0.3854681612      -31.4750345398  TIP3      7691            0.0000000000
     47972      7891  TIP3      H1             37.1659405928       -0.9689214188      -32.1271502529  TIP3      7691            0.0000000000
     47973      7891  TIP3      H2             36.6588438766        0.4287746264      -32.0150681076  TIP3      7691            0.0000000000
     47974      7892  TIP3      OH2            34.2653342969        2.1805489720      -44.9547944258  TIP3      7692            0.0000000000
     47975      7892  TIP3      H1             34.5000972034        1.8999082826      -44.0388207022  TIP3      7692            0.0000000000
     47976      7892  TIP3      H2             33.7846055813        1.3833370955      -45.2564292149  TIP3      7692            0.0000000000
     47977      7893  TIP3      OH2            20.1116180059        2.7262616279      -40.0111808220  TIP3      7693            0.0000000000
     47978      7893  TIP3      H1             20.4930453097        1.8273932205      -39.8962095773  TIP3      7693            0.0000000000
     47979      7893  TIP3      H2             20.9070117198        3.2961894524      -40.0588545928  TIP3      7693            0.0000000000
     47980      7894  TIP3      OH2            18.5173212509        5.7890082159      -39.2018043502  TIP3      7694            0.0000000000
     47981      7894  TIP3      H1             19.0621217254        5.5159645045      -39.9671069303  TIP3      7694            0.0000000000
     47982      7894  TIP3      H2             18.9420578308        6.6268804651      -38.9835836596  TIP3      7694            0.0000000000
     47983      7895  TIP3      OH2            36.1225823830        1.8317210192      -32.8185990026  TIP3      7695            0.0000000000
     47984      7895  TIP3      H1             35.2582930808        2.3053994658      -32.7017119125  TIP3      7695            0.0000000000
     47985      7895  TIP3      H2             36.0412099483        1.6225801136      -33.7663308464  TIP3      7695            0.0000000000
     47986      7896  TIP3      OH2            36.8609081979        2.0905085595      -48.4721418213  TIP3      7696            0.0000000000
     47987      7896  TIP3      H1             37.1401242515        1.2225915990      -48.8149453915  TIP3      7696            0.0000000000
     47988      7896  TIP3      H2             37.4801746278        2.7131895990      -48.9086681582  TIP3      7696            0.0000000000
     47989      7897  TIP3      OH2            18.7707855610        1.9346891208      -45.1644453827  TIP3      7697            0.0000000000
     47990      7897  TIP3      H1             17.8326272194        2.2001431322      -45.1142222532  TIP3      7697            0.0000000000
     47991      7897  TIP3      H2             19.0189209197        2.3728872447      -45.9997394763  TIP3      7697            0.0000000000
     47992      7898  TIP3      OH2            33.3897561903       16.5803388992      -43.3046348469  TIP3      7698            0.0000000000
     47993      7898  TIP3      H1             33.9577777671       16.4860253959      -44.0949074511  TIP3      7698            0.0000000000
     47994      7898  TIP3      H2             34.0196963409       16.9963210124      -42.7064869209  TIP3      7698            0.0000000000
     47995      7899  TIP3      OH2            18.5790549914        0.5178625375      -36.9993460709  TIP3      7699            0.0000000000
     47996      7899  TIP3      H1             18.0293086633        0.1956246073      -36.2629131400  TIP3      7699            0.0000000000
     47997      7899  TIP3      H2             18.0138812257        1.1681986752      -37.4544655052  TIP3      7699            0.0000000000
     47998      7900  TIP3      OH2            20.9616477824       13.8021190805      -32.9968455401  TIP3      7700            0.0000000000
     47999      7900  TIP3      H1             20.0680868954       14.0749908630      -33.2630893395  TIP3      7700            0.0000000000
     48000      7900  TIP3      H2             20.8355953412       13.3041020202      -32.1822082787  TIP3      7700            0.0000000000
     48001      7901  TIP3      OH2            23.9255062637       15.4517632832      -36.1450221450  TIP3      7701            0.0000000000
     48002      7901  TIP3      H1             23.8778208455       16.3152318610      -36.6211371587  TIP3      7701            0.0000000000
     48003      7901  TIP3      H2             24.8717399667       15.2356155355      -36.2537698330  TIP3      7701            0.0000000000
     48004      7902  TIP3      OH2            28.0202709948       16.4148889419      -33.7564029749  TIP3      7702            0.0000000000
     48005      7902  TIP3      H1             28.1065751422       16.1473690843      -32.8219119850  TIP3      7702            0.0000000000
     48006      7902  TIP3      H2             28.9171216514       16.7666421961      -33.9522828205  TIP3      7702            0.0000000000
     48007      7903  TIP3      OH2            30.2543169267       17.8470295387      -34.1741667792  TIP3      7703            0.0000000000
     48008      7903  TIP3      H1             31.0176176081       17.3931095573      -34.5523205759  TIP3      7703            0.0000000000
     48009      7903  TIP3      H2             30.6199531945       18.2179577393      -33.3469893719  TIP3      7703            0.0000000000
     48010      7904  TIP3      OH2            35.3126584382        0.0696123311      -34.9653381630  TIP3      7704            0.0000000000
     48011      7904  TIP3      H1             34.4949434079        0.4656713326      -35.3132604377  TIP3      7704            0.0000000000
     48012      7904  TIP3      H2             35.3191490939       -0.8247721918      -35.3631823953  TIP3      7704            0.0000000000
     48013      7905  TIP3      OH2            21.2199270792       18.2215881372      -36.5946268287  TIP3      7705            0.0000000000
     48014      7905  TIP3      H1             20.4558415853       18.7764433019      -36.8671186570  TIP3      7705            0.0000000000
     48015      7905  TIP3      H2             21.1370998735       18.2386119141      -35.6343725755  TIP3      7705            0.0000000000
     48016      7906  TIP3      OH2            23.6044916439       17.8027495137      -37.5424285300  TIP3      7706            0.0000000000
     48017      7906  TIP3      H1             22.6844525444       17.9701285533      -37.2139275780  TIP3      7706            0.0000000000
     48018      7906  TIP3      H2             23.6152552070       18.3691454944      -38.3344583585  TIP3      7706            0.0000000000
     48019      7907  TIP3      OH2            28.3788237112       17.3659029103      -38.2801975733  TIP3      7707            0.0000000000
     48020      7907  TIP3      H1             27.8735177195       17.8518162924      -38.9427344069  TIP3      7707            0.0000000000
     48021      7907  TIP3      H2             28.5210779222       18.0675609807      -37.6028151735  TIP3      7707            0.0000000000
     48022      7908  TIP3      OH2            30.2285336482       15.9794596495      -36.7941859142  TIP3      7708            0.0000000000
     48023      7908  TIP3      H1             29.5459512496       16.3743479627      -37.3845921162  TIP3      7708            0.0000000000
     48024      7908  TIP3      H2             30.9377288384       16.6298167749      -36.9030284091  TIP3      7708            0.0000000000
     48025      7909  TIP3      OH2            32.9067273087       17.4789804622      -37.2845802837  TIP3      7709            0.0000000000
     48026      7909  TIP3      H1             32.9981346200       18.3877642247      -37.6039548329  TIP3      7709            0.0000000000
     48027      7909  TIP3      H2             33.4204999938       17.0057312570      -37.9775027400  TIP3      7709            0.0000000000
     48028      7910  TIP3      OH2            20.7287714345       16.6344798549      -39.6050347162  TIP3      7710            0.0000000000
     48029      7910  TIP3      H1             20.4392940872       16.1564126314      -38.7926852422  TIP3      7710            0.0000000000
     48030      7910  TIP3      H2             21.6104264625       16.2282156657      -39.7553972570  TIP3      7710            0.0000000000
     48031      7911  TIP3      OH2            22.9235236320       15.5781675230      -40.7832633925  TIP3      7711            0.0000000000
     48032      7911  TIP3      H1             22.8209311505       14.6335599644      -40.5490131696  TIP3      7711            0.0000000000
     48033      7911  TIP3      H2             23.8041975938       15.7451681429      -40.3770696725  TIP3      7711            0.0000000000
     48034      7912  TIP3      OH2            25.2612242039       15.6301156941      -39.5980337740  TIP3      7712            0.0000000000
     48035      7912  TIP3      H1             25.5742809662       14.7302115684      -39.8078690030  TIP3      7712            0.0000000000
     48036      7912  TIP3      H2             25.4412652401       15.6515911789      -38.6463084543  TIP3      7712            0.0000000000
     48037      7913  TIP3      OH2            28.8437673227        1.6029638470      -40.4964205354  TIP3      7713            0.0000000000
     48038      7913  TIP3      H1             28.0479407896        1.0791788246      -40.3403904112  TIP3      7713            0.0000000000
     48039      7913  TIP3      H2             29.3334635871        1.0357714315      -41.1176834674  TIP3      7713            0.0000000000
     48040      7914  TIP3      OH2            33.7666092087       -0.4386319398      -40.8527077554  TIP3      7714            0.0000000000
     48041      7914  TIP3      H1             34.2071940468        0.2449681193      -41.4083362922  TIP3      7714            0.0000000000
     48042      7914  TIP3      H2             32.8388746713       -0.2059206575      -41.0475713965  TIP3      7714            0.0000000000
     48043      7915  TIP3      OH2            35.1668977431        0.9942815749      -42.6537714229  TIP3      7715            0.0000000000
     48044      7915  TIP3      H1             35.8918560924        0.3478189025      -42.8454605486  TIP3      7715            0.0000000000
     48045      7915  TIP3      H2             35.7243271389        1.7527634540      -42.3542082395  TIP3      7715            0.0000000000
     48046      7916  TIP3      OH2            21.3379479037       -0.1815350856      -42.9531985306  TIP3      7716            0.0000000000
     48047      7916  TIP3      H1             20.4480325407       -0.2797042219      -43.3544645399  TIP3      7716            0.0000000000
     48048      7916  TIP3      H2             21.7210589099       -1.0722514675      -43.1113076476  TIP3      7716            0.0000000000
     48049      7917  TIP3      OH2            19.9031068921       -0.1709701220      -47.3375439575  TIP3      7717            0.0000000000
     48050      7917  TIP3      H1             20.5189227714        0.4572043859      -47.7847935485  TIP3      7717            0.0000000000
     48051      7917  TIP3      H2             19.4950985071        0.3856704188      -46.6569115469  TIP3      7717            0.0000000000
     48052      7918  TIP3      OH2            25.3571472652       -0.4435147116      -43.2492199566  TIP3      7718            0.0000000000
     48053      7918  TIP3      H1             26.1260349161       -0.0797598471      -43.6996647339  TIP3      7718            0.0000000000
     48054      7918  TIP3      H2             25.6142519935       -0.3558346409      -42.3143516265  TIP3      7718            0.0000000000
     48055      7919  TIP3      OH2            31.1305717587        0.1411449003      -41.7430387878  TIP3      7719            0.0000000000
     48056      7919  TIP3      H1             31.0076501151       -0.0165897835      -42.6856309283  TIP3      7719            0.0000000000
     48057      7919  TIP3      H2             30.6907043412       -0.6507631608      -41.3536851612  TIP3      7719            0.0000000000
     48058      7920  TIP3      OH2            32.7368373652       -0.0874047509      -45.7807183757  TIP3      7720            0.0000000000
     48059      7920  TIP3      H1             31.9561684144        0.4811145472      -45.7578515447  TIP3      7720            0.0000000000
     48060      7920  TIP3      H2             32.3617799364       -0.9365644794      -45.4390528318  TIP3      7720            0.0000000000
     48061      7921  TIP3      OH2            19.8517180271       15.9665634252      -46.2365195095  TIP3      7721            0.0000000000
     48062      7921  TIP3      H1             18.9551225629       15.9456737878      -46.6214758728  TIP3      7721            0.0000000000
     48063      7921  TIP3      H2             20.0627580271       16.9124723236      -46.3597984298  TIP3      7721            0.0000000000
     48064      7922  TIP3      OH2            21.7241670710        1.1809117474      -48.7857518832  TIP3      7722            0.0000000000
     48065      7922  TIP3      H1             22.5107825476        0.6385054338      -48.6383374726  TIP3      7722            0.0000000000
     48066      7922  TIP3      H2             21.9521896983        2.0121718956      -48.3570821038  TIP3      7722            0.0000000000
     48067      7923  TIP3      OH2            27.1111402639        2.3044915128      -46.3167126389  TIP3      7723            0.0000000000
     48068      7923  TIP3      H1             27.6588302455        1.8154148864      -45.6783077929  TIP3      7723            0.0000000000
     48069      7923  TIP3      H2             27.1597351815        3.1828807656      -45.8870073870  TIP3      7723            0.0000000000
     48070      7924  TIP3      OH2            28.5620143693       17.1973115759      -48.1921527281  TIP3      7724            0.0000000000
     48071      7924  TIP3      H1             29.5303445839       17.4002308894      -48.3360863635  TIP3      7724            0.0000000000
     48072      7924  TIP3      H2             28.3776101129       16.7258238539      -49.0263963632  TIP3      7724            0.0000000000
     48073      7925  TIP3      OH2            35.2519137051       16.5295441297      -45.2388747664  TIP3      7725            0.0000000000
     48074      7925  TIP3      H1             35.0871113230       15.5951183499      -45.5169070384  TIP3      7725            0.0000000000
     48075      7925  TIP3      H2             35.2077831756       16.9938169739      -46.0902048064  TIP3      7725            0.0000000000
     48076      7926  TIP3      OH2            20.9652564406        0.8578847639      -33.8187631740  TIP3      7726            0.0000000000
     48077      7926  TIP3      H1             20.6583247339       -0.0497415638      -33.9742051447  TIP3      7726            0.0000000000
     48078      7926  TIP3      H2             21.7787429282        0.6461817577      -33.3079031024  TIP3      7726            0.0000000000
     48079      7927  TIP3      OH2            22.7949515198        0.0934608417      -31.7086287275  TIP3      7727            0.0000000000
     48080      7927  TIP3      H1             23.6600289875       -0.1361867332      -32.0969946322  TIP3      7727            0.0000000000
     48081      7927  TIP3      H2             22.4041559056       -0.7940449891      -31.6194537255  TIP3      7727            0.0000000000
     48082      7928  TIP3      OH2            22.0230869175       17.2161425520      -48.6711706699  TIP3      7728            0.0000000000
     48083      7928  TIP3      H1             21.3960694002       17.4266761785      -47.9682665709  TIP3      7728            0.0000000000
     48084      7928  TIP3      H2             22.3267278377       16.3303539687      -48.4311094509  TIP3      7728            0.0000000000
     48085      7929  TIP3      OH2            31.7511435240       -0.7061706373      -31.2995862442  TIP3      7729            0.0000000000
     48086      7929  TIP3      H1             31.8662244295       -1.6339734533      -31.0387887457  TIP3      7729            0.0000000000
     48087      7929  TIP3      H2             32.4964166542       -0.6438935238      -31.9409098463  TIP3      7729            0.0000000000
     48088      7930  TIP3      OH2            34.4974727427       15.2626135397      -33.2435413858  TIP3      7730            0.0000000000
     48089      7930  TIP3      H1             33.9508117652       15.3538511501      -34.0509544616  TIP3      7730            0.0000000000
     48090      7930  TIP3      H2             34.3869571049       16.1771960834      -32.9094601740  TIP3      7730            0.0000000000
     48091      7931  TIP3      OH2            37.3419577789        6.1182221658      -44.2177852428  TIP3      7731            0.0000000000
     48092      7931  TIP3      H1             37.0657735863        7.0506978983      -44.2284525929  TIP3      7731            0.0000000000
     48093      7931  TIP3      H2             36.9532763913        5.8265660036      -45.0794935647  TIP3      7731            0.0000000000
     48094      7932  TIP3      OH2            37.4185871940       10.6218075738      -36.5032964945  TIP3      7732            0.0000000000
     48095      7932  TIP3      H1             36.9272608877       10.5881257161      -37.3517829515  TIP3      7732            0.0000000000
     48096      7932  TIP3      H2             37.4119044979        9.6953483325      -36.1796187327  TIP3      7732            0.0000000000
     48097      7933  TIP3      OH2            37.0775974920       13.5223826910      -39.6217959409  TIP3      7733            0.0000000000
     48098      7933  TIP3      H1             38.0069238625       13.5930501222      -39.9456316113  TIP3      7733            0.0000000000
     48099      7933  TIP3      H2             37.0540196287       14.2714650434      -39.0099188649  TIP3      7733            0.0000000000
     48100      7934  TIP3      OH2            37.0523943702        2.8760786382      -42.5981653181  TIP3      7734            0.0000000000
     48101      7934  TIP3      H1             37.8684318745        3.3849504173      -42.3940122795  TIP3      7734            0.0000000000
     48102      7934  TIP3      H2             37.0944370960        2.8550690241      -43.5660471844  TIP3      7734            0.0000000000
     48103      7935  TIP3      OH2            37.5705543839        8.1480456186      -35.3978398538  TIP3      7735            0.0000000000
     48104      7935  TIP3      H1             37.3783991277        7.5969462565      -34.5971579024  TIP3      7735            0.0000000000
     48105      7935  TIP3      H2             36.8431390738        7.8597658086      -35.9948458046  TIP3      7735            0.0000000000
     48106      7936  TIP3      OH2            38.0193950679       10.1650871765      -32.2453393403  TIP3      7736            0.0000000000
     48107      7936  TIP3      H1             37.6533371653        9.3058614438      -31.9792533267  TIP3      7736            0.0000000000
     48108      7936  TIP3      H2             37.3078375824       10.5692981865      -32.7961757292  TIP3      7736            0.0000000000
     48109      7937  TIP3      OH2            36.7032492078       17.8044252855      -43.3678234649  TIP3      7737            0.0000000000
     48110      7937  TIP3      H1             36.1390185097       17.4005321871      -44.0622657151  TIP3      7737            0.0000000000
     48111      7937  TIP3      H2             36.9534917933       16.9841073675      -42.8776560576  TIP3      7737            0.0000000000
     48112      7938  TIP3      OH2            37.1773024973       15.6513003822      -41.8267538007  TIP3      7738            0.0000000000
     48113      7938  TIP3      H1             36.8519526844       14.7420332254      -41.7054475994  TIP3      7738            0.0000000000
     48114      7938  TIP3      H2             37.5243224306       15.8300393108      -40.9376564448  TIP3      7738            0.0000000000
     48115      7939  TIP3      OH2            37.9275112721        8.4103740424      -39.0042721210  TIP3      7739            0.0000000000
     48116      7939  TIP3      H1             37.5419121057        8.8970498854      -39.7459818373  TIP3      7739            0.0000000000
     48117      7939  TIP3      H2             38.7091622380        8.9798378764      -38.8264612081  TIP3      7739            0.0000000000
     48118      7940  TIP3      OH2            37.1374738616        4.3366253352      -32.8163161884  TIP3      7740            0.0000000000
     48119      7940  TIP3      H1             38.0849020186        4.2898135858      -33.0815923136  TIP3      7740            0.0000000000
     48120      7940  TIP3      H2             36.8399145685        3.4111863492      -32.8387919363  TIP3      7740            0.0000000000
     48121      7941  TIP3      OH2            36.7064590356        5.5626718511      -39.5895738756  TIP3      7741            0.0000000000
     48122      7941  TIP3      H1             37.6749999646        5.4413179792      -39.7348004697  TIP3      7741            0.0000000000
     48123      7941  TIP3      H2             36.7281393471        6.4795709112      -39.2844909124  TIP3      7741            0.0000000000
     48124      7942  TIP3      OH2            36.7876035529        2.2702234508      -45.7207758364  TIP3      7742            0.0000000000
     48125      7942  TIP3      H1             35.8319080254        2.3535398358      -45.5172186252  TIP3      7742            0.0000000000
     48126      7942  TIP3      H2             36.7787337716        2.2699370444      -46.7087435426  TIP3      7742            0.0000000000
     48127      7943  TIP3      OH2            36.5318676890        0.3789884266      -37.2836306926  TIP3      7743            0.0000000000
     48128      7943  TIP3      H1             36.3396639250        0.4522542762      -36.3258277118  TIP3      7743            0.0000000000
     48129      7943  TIP3      H2             36.0320810207        1.1280196098      -37.6574419786  TIP3      7743            0.0000000000
     48130      7944  TIP3      OH2           -26.1594362015       28.2732915181      -43.1019536932  TIP3      7744            0.0000000000
     48131      7944  TIP3      H1            -26.3709699075       29.1593407849      -42.7801288769  TIP3      7744            0.0000000000
     48132      7944  TIP3      H2            -26.8627216274       28.1605897362      -43.7690684288  TIP3      7744            0.0000000000
     48133      7945  TIP3      OH2           -27.2501560629       27.0182079344      -39.7058143637  TIP3      7745            0.0000000000
     48134      7945  TIP3      H1            -27.3539177610       26.6203109703      -38.8117784497  TIP3      7745            0.0000000000
     48135      7945  TIP3      H2            -27.8680144823       26.4907097668      -40.2459702124  TIP3      7745            0.0000000000
     48136      7946  TIP3      OH2           -35.2900524477       27.0790223606      -38.3389978525  TIP3      7746            0.0000000000
     48137      7946  TIP3      H1            -35.4414977250       26.2391010824      -37.8671133092  TIP3      7746            0.0000000000
     48138      7946  TIP3      H2            -34.5606952118       27.4305648869      -37.8068535238  TIP3      7746            0.0000000000
     48139      7947  TIP3      OH2           -24.0191996091       29.9411537414      -41.1934897494  TIP3      7747            0.0000000000
     48140      7947  TIP3      H1            -24.0926497811       29.2506699922      -40.5078813746  TIP3      7747            0.0000000000
     48141      7947  TIP3      H2            -24.0782364484       30.7455308983      -40.6633198957  TIP3      7747            0.0000000000
     48142      7948  TIP3      OH2           -34.6385551297       31.3838379428      -39.3679603223  TIP3      7748            0.0000000000
     48143      7948  TIP3      H1            -34.6307109646       30.5182692986      -39.8657053783  TIP3      7748            0.0000000000
     48144      7948  TIP3      H2            -33.7525640271       31.6888103258      -39.6391737512  TIP3      7748            0.0000000000
     48145      7949  TIP3      OH2           -36.8742060158       25.3614405044      -44.5421387707  TIP3      7749            0.0000000000
     48146      7949  TIP3      H1            -37.0630418895       25.6500965159      -43.6394841424  TIP3      7749            0.0000000000
     48147      7949  TIP3      H2            -37.7050158551       24.8789084551      -44.7238324901  TIP3      7749            0.0000000000
     48148      7950  TIP3      OH2           -37.3669627947       27.0794050947      -41.6456125174  TIP3      7750            0.0000000000
     48149      7950  TIP3      H1            -36.8019664401       26.3189287463      -41.3746923433  TIP3      7750            0.0000000000
     48150      7950  TIP3      H2            -36.7402521925       27.6056380340      -42.1605985917  TIP3      7750            0.0000000000
     48151      7951  TIP3      OH2           -26.8439429243       35.0416478081      -41.6164886308  TIP3      7751            0.0000000000
     48152      7951  TIP3      H1            -25.9263555625       34.7091086377      -41.7582378258  TIP3      7751            0.0000000000
     48153      7951  TIP3      H2            -27.1136944098       34.4437836940      -40.8993298123  TIP3      7751            0.0000000000
     48154      7952  TIP3      OH2           -28.9330802783       29.9402742316      -39.2815971479  TIP3      7752            0.0000000000
     48155      7952  TIP3      H1            -28.6341146288       29.1664112657      -39.7789598407  TIP3      7752            0.0000000000
     48156      7952  TIP3      H2            -28.1375554198       30.1381580487      -38.7511729516  TIP3      7752            0.0000000000
     48157      7953  TIP3      OH2           -20.5133612285       21.4967349074      -39.1777516583  TIP3      7753            0.0000000000
     48158      7953  TIP3      H1            -20.5227536485       21.9731090952      -38.3166560571  TIP3      7753            0.0000000000
     48159      7953  TIP3      H2            -19.6118999502       21.7092967647      -39.4709571016  TIP3      7753            0.0000000000
     48160      7954  TIP3      OH2           -25.6848588722       24.3774219900      -38.5493492046  TIP3      7754            0.0000000000
     48161      7954  TIP3      H1            -25.4842133674       23.4318997197      -38.4668649112  TIP3      7754            0.0000000000
     48162      7954  TIP3      H2            -25.8484726075       24.4571059790      -39.5033965740  TIP3      7754            0.0000000000
     48163      7955  TIP3      OH2           -32.5496738747       22.1251805587      -41.9363309544  TIP3      7755            0.0000000000
     48164      7955  TIP3      H1            -32.4793406375       22.9157671220      -42.5174578762  TIP3      7755            0.0000000000
     48165      7955  TIP3      H2            -32.9535430770       21.5001231109      -42.5694541907  TIP3      7755            0.0000000000
     48166      7956  TIP3      OH2           -25.2795172742       22.4163414211      -43.2405988933  TIP3      7756            0.0000000000
     48167      7956  TIP3      H1            -24.7161757465       21.9619130375      -42.5657247906  TIP3      7756            0.0000000000
     48168      7956  TIP3      H2            -24.6393903108       23.0537834721      -43.5972662213  TIP3      7756            0.0000000000
     48169      7957  TIP3      OH2           -35.6210196039       24.9702268436      -41.2261748873  TIP3      7757            0.0000000000
     48170      7957  TIP3      H1            -35.0845568303       24.3994172974      -40.6423442490  TIP3      7757            0.0000000000
     48171      7957  TIP3      H2            -35.4856768269       24.5054054370      -42.0754480401  TIP3      7757            0.0000000000
     48172      7958  TIP3      OH2           -31.4247414972       26.2355690011      -41.5524476870  TIP3      7758            0.0000000000
     48173      7958  TIP3      H1            -30.5471227990       25.8494019866      -41.3675685227  TIP3      7758            0.0000000000
     48174      7958  TIP3      H2            -31.7982454700       25.5219854620      -42.1095860617  TIP3      7758            0.0000000000
     48175      7959  TIP3      OH2           -20.4429771853       22.6399818998      -36.6763897422  TIP3      7759            0.0000000000
     48176      7959  TIP3      H1            -20.8651428605       23.5341899945      -36.6217817532  TIP3      7759            0.0000000000
     48177      7959  TIP3      H2            -19.7133784126       22.7805260471      -36.0508170164  TIP3      7759            0.0000000000
     48178      7960  TIP3      OH2           -33.7000570926       21.2939753043      -37.8127887204  TIP3      7760            0.0000000000
     48179      7960  TIP3      H1            -34.0215544335       21.7947354268      -38.5854077543  TIP3      7760            0.0000000000
     48180      7960  TIP3      H2            -34.2852297245       21.6711827999      -37.1196112516  TIP3      7760            0.0000000000
     48181      7961  TIP3      OH2           -26.9177843952       30.8335895140      -44.0875584943  TIP3      7761            0.0000000000
     48182      7961  TIP3      H1            -26.9604417132       30.7006722477      -45.0571328660  TIP3      7761            0.0000000000
     48183      7961  TIP3      H2            -27.1413804447       31.7808584502      -44.0394822501  TIP3      7761            0.0000000000
     48184      7962  TIP3      OH2           -31.0632027845       28.9136553729      -37.9675832942  TIP3      7762            0.0000000000
     48185      7962  TIP3      H1            -31.5822294073       29.6384887707      -37.5682707030  TIP3      7762            0.0000000000
     48186      7962  TIP3      H2            -30.4025466695       29.4325764228      -38.4728978079  TIP3      7762            0.0000000000
     48187      7963  TIP3      OH2           -23.2816476335       21.7042307961      -41.5989234617  TIP3      7763            0.0000000000
     48188      7963  TIP3      H1            -23.3890348852       21.0747049595      -40.8737795018  TIP3      7763            0.0000000000
     48189      7963  TIP3      H2            -22.4460811212       22.1225235310      -41.3576294158  TIP3      7763            0.0000000000
     48190      7964  TIP3      OH2           -34.2410417122       23.1891775958      -39.7349150108  TIP3      7764            0.0000000000
     48191      7964  TIP3      H1            -33.6623587356       23.8445147035      -39.2661040067  TIP3      7764            0.0000000000
     48192      7964  TIP3      H2            -33.6368552414       22.8866680828      -40.4486634369  TIP3      7764            0.0000000000
     48193      7965  TIP3      OH2           -32.4088033288       31.1153072628      -36.8000756623  TIP3      7765            0.0000000000
     48194      7965  TIP3      H1            -32.3995895506       32.0813526338      -36.6167535395  TIP3      7765            0.0000000000
     48195      7965  TIP3      H2            -33.0508195839       30.7454598136      -36.1541431254  TIP3      7765            0.0000000000
     48196      7966  TIP3      OH2           -37.0653026051       30.0414316302      -45.8997873633  TIP3      7766            0.0000000000
     48197      7966  TIP3      H1            -37.1830119142       30.4937442690      -46.7662760614  TIP3      7766            0.0000000000
     48198      7966  TIP3      H2            -36.8316268859       30.7630488195      -45.2930067045  TIP3      7766            0.0000000000
     48199      7967  TIP3      OH2           -23.2822135198       32.6698645081      -38.7684699166  TIP3      7767            0.0000000000
     48200      7967  TIP3      H1            -24.2532889615       32.6045712198      -38.7116872422  TIP3      7767            0.0000000000
     48201      7967  TIP3      H2            -23.2002070465       33.2850982752      -39.5140451381  TIP3      7767            0.0000000000
     48202      7968  TIP3      OH2           -23.1158722095       20.7587757791      -37.9633871306  TIP3      7768            0.0000000000
     48203      7968  TIP3      H1            -23.8545013437       20.9131387570      -38.5988834673  TIP3      7768            0.0000000000
     48204      7968  TIP3      H2            -22.3571837352       21.1267080089      -38.4643968173  TIP3      7768            0.0000000000
     48205      7969  TIP3      OH2           -30.1485271829       18.7395163958      -40.5228930435  TIP3      7769            0.0000000000
     48206      7969  TIP3      H1            -30.4240954260       17.8178756159      -40.4217870381  TIP3      7769            0.0000000000
     48207      7969  TIP3      H2            -30.9948486819       19.1870599401      -40.2410479978  TIP3      7769            0.0000000000
     48208      7970  TIP3      OH2           -24.4870474425       33.9163075521      -42.0795062569  TIP3      7770            0.0000000000
     48209      7970  TIP3      H1            -24.5337477758       33.1057284359      -42.6225815452  TIP3      7770            0.0000000000
     48210      7970  TIP3      H2            -23.8442382348       34.4153764590      -42.6377466492  TIP3      7770            0.0000000000
     48211      7971  TIP3      OH2           -23.6819141974       31.6696332398      -43.6918218900  TIP3      7771            0.0000000000
     48212      7971  TIP3      H1            -24.0626863478       31.3593473072      -44.5312565089  TIP3      7771            0.0000000000
     48213      7971  TIP3      H2            -23.7629150851       30.8663409904      -43.1431777102  TIP3      7771            0.0000000000
     48214      7972  TIP3      OH2           -22.2217914665       30.5672426891      -35.4094719556  TIP3      7772            0.0000000000
     48215      7972  TIP3      H1            -22.0359967343       29.8478961044      -36.0523770665  TIP3      7772            0.0000000000
     48216      7972  TIP3      H2            -22.0246719942       31.3410989446      -35.9822292601  TIP3      7772            0.0000000000
     48217      7973  TIP3      OH2           -27.5672810073       27.7571340909      -45.5195820641  TIP3      7773            0.0000000000
     48218      7973  TIP3      H1            -28.1225103619       28.5137889258      -45.8119495714  TIP3      7773            0.0000000000
     48219      7973  TIP3      H2            -26.8128566996       27.7709565309      -46.1429678309  TIP3      7773            0.0000000000
     48220      7974  TIP3      OH2           -27.3632543005       26.1924581254      -48.5785649944  TIP3      7774            0.0000000000
     48221      7974  TIP3      H1            -26.6743656359       26.6171652458      -48.0162952327  TIP3      7774            0.0000000000
     48222      7974  TIP3      H2            -26.9512443284       25.3107921917      -48.7318788166  TIP3      7774            0.0000000000
     48223      7975  TIP3      OH2           -20.2007464343       26.9155619219      -37.4857242123  TIP3      7775            0.0000000000
     48224      7975  TIP3      H1            -20.7924778497       27.6910902222      -37.4301196551  TIP3      7775            0.0000000000
     48225      7975  TIP3      H2            -19.5803591740       27.2163029250      -38.1847972365  TIP3      7775            0.0000000000
     48226      7976  TIP3      OH2           -24.0636339953       27.3464902470      -44.5761612231  TIP3      7776            0.0000000000
     48227      7976  TIP3      H1            -24.7572413627       27.7213929098      -43.9759512889  TIP3      7776            0.0000000000
     48228      7976  TIP3      H2            -23.3949342864       27.0225688535      -43.9293903805  TIP3      7776            0.0000000000
     48229      7977  TIP3      OH2           -24.1650677910       25.9791214083      -35.6119318004  TIP3      7777            0.0000000000
     48230      7977  TIP3      H1            -24.3434815767       26.8281906157      -35.1792604211  TIP3      7777            0.0000000000
     48231      7977  TIP3      H2            -24.7609270867       26.0100003783      -36.3655935726  TIP3      7777            0.0000000000
     48232      7978  TIP3      OH2           -32.5623166404       28.4111531270      -42.7639395521  TIP3      7778            0.0000000000
     48233      7978  TIP3      H1            -33.1648437827       28.1311595936      -43.4838419621  TIP3      7778            0.0000000000
     48234      7978  TIP3      H2            -32.1888314277       27.5472799851      -42.4949131926  TIP3      7778            0.0000000000
     48235      7979  TIP3      OH2           -31.3271841571       31.5947091408      -40.1537601782  TIP3      7779            0.0000000000
     48236      7979  TIP3      H1            -31.0380776312       31.5692259276      -41.0877315812  TIP3      7779            0.0000000000
     48237      7979  TIP3      H2            -30.5689299365       31.1949869986      -39.6955551554  TIP3      7779            0.0000000000
     48238      7980  TIP3      OH2           -32.2212137557       26.7894497489      -39.1056150697  TIP3      7780            0.0000000000
     48239      7980  TIP3      H1            -31.9149377768       26.8808748760      -40.0382366525  TIP3      7780            0.0000000000
     48240      7980  TIP3      H2            -31.7864999846       27.5599718542      -38.6824076629  TIP3      7780            0.0000000000
     48241      7981  TIP3      OH2           -25.9387156876       32.6356276706      -38.4521653574  TIP3      7781            0.0000000000
     48242      7981  TIP3      H1            -26.3083622400       33.3391422516      -37.8824999667  TIP3      7781            0.0000000000
     48243      7981  TIP3      H2            -26.1733134491       31.8264620257      -37.9489533708  TIP3      7781            0.0000000000
     48244      7982  TIP3      OH2           -31.3889557615       31.5696726022      -34.1378800371  TIP3      7782            0.0000000000
     48245      7982  TIP3      H1            -32.0935061842       32.1867461797      -33.8242144055  TIP3      7782            0.0000000000
     48246      7982  TIP3      H2            -31.6628744088       31.4253046793      -35.0624676239  TIP3      7782            0.0000000000
     48247      7983  TIP3      OH2           -25.3450732473       27.1132761783      -46.9328373821  TIP3      7783            0.0000000000
     48248      7983  TIP3      H1            -24.8503246338       27.1611169354      -46.0744452045  TIP3      7783            0.0000000000
     48249      7983  TIP3      H2            -24.7067837090       27.5686530877      -47.5406771400  TIP3      7783            0.0000000000
     48250      7984  TIP3      OH2           -34.0209040258       27.7228520227      -35.6809524857  TIP3      7784            0.0000000000
     48251      7984  TIP3      H1            -33.9464523839       28.2544113850      -34.8645993687  TIP3      7784            0.0000000000
     48252      7984  TIP3      H2            -34.9469489436       27.4226988401      -35.6191972167  TIP3      7784            0.0000000000
     48253      7985  TIP3      OH2           -27.5301190308       33.6757263749      -44.1363676346  TIP3      7785            0.0000000000
     48254      7985  TIP3      H1            -27.3664826399       33.9329678462      -43.2149509867  TIP3      7785            0.0000000000
     48255      7985  TIP3      H2            -28.1474462387       34.3679467067      -44.4098769762  TIP3      7785            0.0000000000
     48256      7986  TIP3      OH2           -33.3391974865       33.4120921007      -33.7005112616  TIP3      7786            0.0000000000
     48257      7986  TIP3      H1            -33.4817912156       33.4775894052      -34.6575041330  TIP3      7786            0.0000000000
     48258      7986  TIP3      H2            -34.2337964286       33.1514998616      -33.3811376254  TIP3      7786            0.0000000000
     48259      7987  TIP3      OH2           -21.2978368052       18.4950917531      -46.8038415356  TIP3      7787            0.0000000000
     48260      7987  TIP3      H1            -22.2805573846       18.5040743853      -46.7319934747  TIP3      7787            0.0000000000
     48261      7987  TIP3      H2            -21.1478706766       19.4247421339      -47.0324631925  TIP3      7787            0.0000000000
     48262      7988  TIP3      OH2           -34.1433295119       27.1608332699      -44.7967870819  TIP3      7788            0.0000000000
     48263      7988  TIP3      H1            -34.4387105454       27.8323424590      -45.4637923029  TIP3      7788            0.0000000000
     48264      7988  TIP3      H2            -34.2878161474       26.3367072399      -45.2776098718  TIP3      7788            0.0000000000
     48265      7989  TIP3      OH2           -20.3570097425       33.1091706226      -48.4784405020  TIP3      7789            0.0000000000
     48266      7989  TIP3      H1            -19.8315066164       33.9163895529      -48.6756873136  TIP3      7789            0.0000000000
     48267      7989  TIP3      H2            -19.6794856440       32.3993074234      -48.5317774357  TIP3      7789            0.0000000000
     48268      7990  TIP3      OH2           -36.7588553389       29.5817827891      -36.2257690168  TIP3      7790            0.0000000000
     48269      7990  TIP3      H1            -37.7429238122       29.5171887466      -36.2531463128  TIP3      7790            0.0000000000
     48270      7990  TIP3      H2            -36.5475908191       28.6454222860      -36.3978407843  TIP3      7790            0.0000000000
     48271      7991  TIP3      OH2           -37.2245756832       32.7435114169      -40.0894257341  TIP3      7791            0.0000000000
     48272      7991  TIP3      H1            -36.5049167725       32.1018612088      -39.9228797407  TIP3      7791            0.0000000000
     48273      7991  TIP3      H2            -37.3994932678       33.0685464092      -39.1960466752  TIP3      7791            0.0000000000
     48274      7992  TIP3      OH2           -19.7665374579       33.1665136241      -33.6454846443  TIP3      7792            0.0000000000
     48275      7992  TIP3      H1            -19.9570259956       32.2175827775      -33.5723397313  TIP3      7792            0.0000000000
     48276      7992  TIP3      H2            -20.6589035956       33.5304167713      -33.4376018966  TIP3      7792            0.0000000000
     48277      7993  TIP3      OH2           -28.6571221580       32.4579808909      -34.9338721931  TIP3      7793            0.0000000000
     48278      7993  TIP3      H1            -28.5963910154       33.3973453018      -34.6587244635  TIP3      7793            0.0000000000
     48279      7993  TIP3      H2            -29.5494414154       32.2069235030      -34.6280515968  TIP3      7793            0.0000000000
     48280      7994  TIP3      OH2           -27.6680523488       36.7764522083      -45.1211247209  TIP3      7794            0.0000000000
     48281      7994  TIP3      H1            -27.7091685101       36.6173073216      -46.0788552541  TIP3      7794            0.0000000000
     48282      7994  TIP3      H2            -28.0203422738       37.6702291200      -45.0196547840  TIP3      7794            0.0000000000
     48283      7995  TIP3      OH2           -34.3262419773       34.9495863664      -43.3247716885  TIP3      7795            0.0000000000
     48284      7995  TIP3      H1            -34.1072130269       34.8876774706      -42.3674017871  TIP3      7795            0.0000000000
     48285      7995  TIP3      H2            -35.2149565764       34.5546384904      -43.3119613972  TIP3      7795            0.0000000000
     48286      7996  TIP3      OH2           -25.1342089644       35.7972062213      -47.7286352714  TIP3      7796            0.0000000000
     48287      7996  TIP3      H1            -24.6482255290       35.1673231018      -48.3190645102  TIP3      7796            0.0000000000
     48288      7996  TIP3      H2            -25.0545918608       35.3308374248      -46.8659667123  TIP3      7796            0.0000000000
     48289      7997  TIP3      OH2           -25.4987085814       35.2677329422      -45.1855599345  TIP3      7797            0.0000000000
     48290      7997  TIP3      H1            -26.2744005505       35.8005972428      -44.9167849885  TIP3      7797            0.0000000000
     48291      7997  TIP3      H2            -25.8192930574       34.3722294598      -44.9989482642  TIP3      7797            0.0000000000
     48292      7998  TIP3      OH2           -22.8552926905       24.6108360839      -33.3654446429  TIP3      7798            0.0000000000
     48293      7998  TIP3      H1            -23.2112350286       24.8818202255      -34.2326327759  TIP3      7798            0.0000000000
     48294      7998  TIP3      H2            -22.6029723001       23.6879598666      -33.5510892648  TIP3      7798            0.0000000000
     48295      7999  TIP3      OH2           -34.5821101207       30.6678727742      -35.2819647455  TIP3      7799            0.0000000000
     48296      7999  TIP3      H1            -34.6868696538       30.4941705036      -34.3273446849  TIP3      7799            0.0000000000
     48297      7999  TIP3      H2            -35.2726862277       30.0446444179      -35.6341308893  TIP3      7799            0.0000000000
     48298      8000  TIP3      OH2           -32.4236190906       19.7262926945      -39.5621473066  TIP3      7800            0.0000000000
     48299      8000  TIP3      H1            -33.3044543230       19.7857482398      -39.9898549819  TIP3      7800            0.0000000000
     48300      8000  TIP3      H2            -32.6194780111       20.1768082751      -38.7166526074  TIP3      7800            0.0000000000
     48301      8001  TIP3      OH2           -27.7598175978       19.1249965184      -36.3623292447  TIP3      7801            0.0000000000
     48302      8001  TIP3      H1            -27.3774819202       18.5718836862      -35.6444971628  TIP3      7801            0.0000000000
     48303      8001  TIP3      H2            -28.7286821287       19.0780957325      -36.2016649150  TIP3      7801            0.0000000000
     48304      8002  TIP3      OH2           -24.8900254340       23.1775322765      -35.1445541568  TIP3      7802            0.0000000000
     48305      8002  TIP3      H1            -25.2836170924       22.8122639514      -34.3179862807  TIP3      7802            0.0000000000
     48306      8002  TIP3      H2            -25.2653229800       24.0730961142      -35.1663387586  TIP3      7802            0.0000000000
     48307      8003  TIP3      OH2           -23.7169233847       28.2070660164      -48.6013106122  TIP3      7803            0.0000000000
     48308      8003  TIP3      H1            -24.1044484766       28.3162197029      -49.5007464805  TIP3      7803            0.0000000000
     48309      8003  TIP3      H2            -22.7805911579       28.3830807100      -48.8265007548  TIP3      7803            0.0000000000
     48310      8004  TIP3      OH2           -28.1569736903       21.9740521651      -48.5358417610  TIP3      7804            0.0000000000
     48311      8004  TIP3      H1            -28.6253193751       21.5857545269      -47.7602419481  TIP3      7804            0.0000000000
     48312      8004  TIP3      H2            -28.6204392056       21.5324724781      -49.2553428217  TIP3      7804            0.0000000000
     48313      8005  TIP3      OH2           -32.3998615149       24.3416585103      -38.1897008847  TIP3      7805            0.0000000000
     48314      8005  TIP3      H1            -33.1994894308       24.4541708723      -37.6373760073  TIP3      7805            0.0000000000
     48315      8005  TIP3      H2            -32.2669358276       25.2752563701      -38.4895315893  TIP3      7805            0.0000000000
     48316      8006  TIP3      OH2           -32.2702271034       24.3807404897      -43.3375349062  TIP3      7806            0.0000000000
     48317      8006  TIP3      H1            -33.2324416446       24.4662401214      -43.5720434268  TIP3      7806            0.0000000000
     48318      8006  TIP3      H2            -31.9083310220       24.1242752492      -44.2088947100  TIP3      7806            0.0000000000
     48319      8007  TIP3      OH2           -26.7204525425       25.4256484490      -44.2851956091  TIP3      7807            0.0000000000
     48320      8007  TIP3      H1            -27.0961449750       26.2168232206      -44.7300628429  TIP3      7807            0.0000000000
     48321      8007  TIP3      H2            -26.2053975255       25.0394010146      -45.0165716426  TIP3      7807            0.0000000000
     48322      8008  TIP3      OH2           -27.9272522671       25.3702040175      -33.1072228735  TIP3      7808            0.0000000000
     48323      8008  TIP3      H1            -28.3897944135       24.5973178492      -32.7082172111  TIP3      7808            0.0000000000
     48324      8008  TIP3      H2            -27.1231755430       25.4072352312      -32.5667157036  TIP3      7808            0.0000000000
     48325      8009  TIP3      OH2           -25.9973011901       24.6589323107      -41.4813406931  TIP3      7809            0.0000000000
     48326      8009  TIP3      H1            -26.0082989527       25.4249615337      -42.0907841545  TIP3      7809            0.0000000000
     48327      8009  TIP3      H2            -26.1019830975       23.9314591182      -42.1196401423  TIP3      7809            0.0000000000
     48328      8010  TIP3      OH2           -34.8471510528       24.4912935955      -36.9456762880  TIP3      7810            0.0000000000
     48329      8010  TIP3      H1            -34.5552993338       24.8120409241      -36.0821216716  TIP3      7810            0.0000000000
     48330      8010  TIP3      H2            -35.1276021304       23.5697957750      -36.7246046382  TIP3      7810            0.0000000000
     48331      8011  TIP3      OH2           -31.7297551055       22.2723259897      -49.4654248778  TIP3      7811            0.0000000000
     48332      8011  TIP3      H1            -32.0263461728       21.8242969367      -48.6622116039  TIP3      7811            0.0000000000
     48333      8011  TIP3      H2            -32.4268341198       22.9123058035      -49.6597171730  TIP3      7811            0.0000000000
     48334      8012  TIP3      OH2           -37.0082923162       22.2904594873      -42.6899156362  TIP3      7812            0.0000000000
     48335      8012  TIP3      H1            -36.8049139815       21.6817080326      -41.9478999077  TIP3      7812            0.0000000000
     48336      8012  TIP3      H2            -37.1357426800       21.7039837069      -43.4551154566  TIP3      7812            0.0000000000
     48337      8013  TIP3      OH2           -37.2444537988       22.5106272891      -47.2398019477  TIP3      7813            0.0000000000
     48338      8013  TIP3      H1            -36.5451875215       22.9413213761      -47.7565048856  TIP3      7813            0.0000000000
     48339      8013  TIP3      H2            -37.9054411206       23.2071595349      -47.1765180866  TIP3      7813            0.0000000000
     48340      8014  TIP3      OH2           -27.1877854440       26.1089259173      -37.2079863668  TIP3      7814            0.0000000000
     48341      8014  TIP3      H1            -26.4707933076       25.5661643913      -37.6180151600  TIP3      7814            0.0000000000
     48342      8014  TIP3      H2            -27.5602719003       25.4330570041      -36.5923908321  TIP3      7814            0.0000000000
     48343      8015  TIP3      OH2           -29.6927075624       22.1391424129      -42.1894216308  TIP3      7815            0.0000000000
     48344      8015  TIP3      H1            -30.6418479160       22.2471149450      -41.9854837416  TIP3      7815            0.0000000000
     48345      8015  TIP3      H2            -29.3451337069       21.7155953750      -41.3830629904  TIP3      7815            0.0000000000
     48346      8016  TIP3      OH2           -34.8022629026       23.9399727395      -43.7204998218  TIP3      7816            0.0000000000
     48347      8016  TIP3      H1            -35.5141999104       24.2403412801      -44.3295989333  TIP3      7816            0.0000000000
     48348      8016  TIP3      H2            -34.9708631898       22.9738917484      -43.6780400080  TIP3      7816            0.0000000000
     48349      8017  TIP3      OH2           -31.5087474594       23.6463441949      -45.9040009593  TIP3      7817            0.0000000000
     48350      8017  TIP3      H1            -30.5848889082       23.9355318874      -45.7955049819  TIP3      7817            0.0000000000
     48351      8017  TIP3      H2            -31.9070631719       24.3689798325      -46.4393252171  TIP3      7817            0.0000000000
     48352      8018  TIP3      OH2           -25.3801900326       21.3301797223      -39.2086143716  TIP3      7818            0.0000000000
     48353      8018  TIP3      H1            -26.0180489440       21.3813251146      -38.4624006515  TIP3      7818            0.0000000000
     48354      8018  TIP3      H2            -25.8594736579       20.8300039845      -39.8975554667  TIP3      7818            0.0000000000
     48355      8019  TIP3      OH2           -32.4866626762       25.3144666112      -47.8708028569  TIP3      7819            0.0000000000
     48356      8019  TIP3      H1            -33.2290715341       24.8442310944      -48.3023249684  TIP3      7819            0.0000000000
     48357      8019  TIP3      H2            -31.7656154504       25.2867486431      -48.5263106843  TIP3      7819            0.0000000000
     48358      8020  TIP3      OH2           -22.7460734063       37.0220099111      -32.8471009701  TIP3      7820            0.0000000000
     48359      8020  TIP3      H1            -22.5586374858       37.3437186807      -33.7472354225  TIP3      7820            0.0000000000
     48360      8020  TIP3      H2            -21.8774187768       37.2233372406      -32.4113133470  TIP3      7820            0.0000000000
     48361      8021  TIP3      OH2           -34.2968834147       29.2224281884      -33.0209240066  TIP3      7821            0.0000000000
     48362      8021  TIP3      H1            -33.5504643200       29.5242088688      -32.4626501257  TIP3      7821            0.0000000000
     48363      8021  TIP3      H2            -35.0133011156       29.6084846959      -32.4894471971  TIP3      7821            0.0000000000
     48364      8022  TIP3      OH2           -28.8125832520       24.9462311022      -40.7260854105  TIP3      7822            0.0000000000
     48365      8022  TIP3      H1            -27.9786354752       24.6265074348      -41.1087297428  TIP3      7822            0.0000000000
     48366      8022  TIP3      H2            -28.9879707859       24.2740375116      -40.0528293649  TIP3      7822            0.0000000000
     48367      8023  TIP3      OH2           -34.3089569395       21.2366638950      -43.9177659102  TIP3      7823            0.0000000000
     48368      8023  TIP3      H1            -34.8264439222       20.4902761540      -43.5439384735  TIP3      7823            0.0000000000
     48369      8023  TIP3      H2            -34.2688073801       20.9977279994      -44.8589811436  TIP3      7823            0.0000000000
     48370      8024  TIP3      OH2           -30.0184367349       23.0396293897      -38.1142436600  TIP3      7824            0.0000000000
     48371      8024  TIP3      H1            -30.8320851337       23.5868804842      -38.2213386609  TIP3      7824            0.0000000000
     48372      8024  TIP3      H2            -29.4582360536       23.6453959174      -37.6079977259  TIP3      7824            0.0000000000
     48373      8025  TIP3      OH2           -29.4171808866       29.6359106950      -46.1396118328  TIP3      7825            0.0000000000
     48374      8025  TIP3      H1            -30.1943162623       29.1492312025      -46.4907170083  TIP3      7825            0.0000000000
     48375      8025  TIP3      H2            -29.7667172028       29.8737972990      -45.2473373794  TIP3      7825            0.0000000000
     48376      8026  TIP3      OH2           -22.0269598681       28.9841895402      -37.4636001980  TIP3      7826            0.0000000000
     48377      8026  TIP3      H1            -21.5684663248       29.5136144699      -38.1585401098  TIP3      7826            0.0000000000
     48378      8026  TIP3      H2            -22.9047206030       28.9071133874      -37.8716859870  TIP3      7826            0.0000000000
     48379      8027  TIP3      OH2           -25.6341390254       22.4003120056      -48.0559716879  TIP3      7827            0.0000000000
     48380      8027  TIP3      H1            -26.6078420629       22.4304360279      -48.2150917274  TIP3      7827            0.0000000000
     48381      8027  TIP3      H2            -25.4581150193       23.2817556783      -47.6678835406  TIP3      7827            0.0000000000
     48382      8028  TIP3      OH2           -28.5019067971       29.7216345904      -35.0733934574  TIP3      7828            0.0000000000
     48383      8028  TIP3      H1            -28.2914349215       29.4089018474      -34.1876665240  TIP3      7828            0.0000000000
     48384      8028  TIP3      H2            -28.4629650964       30.6891204874      -34.9620686181  TIP3      7828            0.0000000000
     48385      8029  TIP3      OH2           -25.0558499734       24.4834761977      -46.5551576898  TIP3      7829            0.0000000000
     48386      8029  TIP3      H1            -24.2417386811       24.2559837299      -46.0526458865  TIP3      7829            0.0000000000
     48387      8029  TIP3      H2            -24.8593720807       25.3915065668      -46.8500466765  TIP3      7829            0.0000000000
     48388      8030  TIP3      OH2           -34.1785563455       29.1037618646      -40.7128031768  TIP3      7830            0.0000000000
     48389      8030  TIP3      H1            -33.7229185892       28.9804171957      -41.5888717925  TIP3      7830            0.0000000000
     48390      8030  TIP3      H2            -33.8270863104       28.3567617846      -40.2156963511  TIP3      7830            0.0000000000
     48391      8031  TIP3      OH2           -27.3159100086       31.1076648269      -46.6949611226  TIP3      7831            0.0000000000
     48392      8031  TIP3      H1            -27.6842842741       32.0241216075      -46.6937743118  TIP3      7831            0.0000000000
     48393      8031  TIP3      H2            -28.1278833730       30.5516869743      -46.5967293341  TIP3      7831            0.0000000000
     48394      8032  TIP3      OH2           -36.6000830246       26.8761615961      -35.6653895452  TIP3      7832            0.0000000000
     48395      8032  TIP3      H1            -36.6070174077       26.7751606066      -34.6938749850  TIP3      7832            0.0000000000
     48396      8032  TIP3      H2            -37.5600949309       26.7467492924      -35.8310894839  TIP3      7832            0.0000000000
     48397      8033  TIP3      OH2           -30.2895670899       26.9128590796      -33.3723435176  TIP3      7833            0.0000000000
     48398      8033  TIP3      H1            -30.9192002292       26.3717457377      -33.8921680583  TIP3      7833            0.0000000000
     48399      8033  TIP3      H2            -29.4734002408       26.3660197030      -33.3418895748  TIP3      7833            0.0000000000
     48400      8034  TIP3      OH2           -25.5023760634       32.0614781282      -34.8782188544  TIP3      7834            0.0000000000
     48401      8034  TIP3      H1            -26.3185830063       32.2651604500      -35.3422319958  TIP3      7834            0.0000000000
     48402      8034  TIP3      H2            -25.6513293826       32.5771370548      -34.0592183772  TIP3      7834            0.0000000000
     48403      8035  TIP3      OH2           -19.9898478914       24.3821780959      -46.4878578510  TIP3      7835            0.0000000000
     48404      8035  TIP3      H1            -20.7138734178       24.2213134389      -47.1314504467  TIP3      7835            0.0000000000
     48405      8035  TIP3      H2            -19.9095559533       25.3488829717      -46.5784986151  TIP3      7835            0.0000000000
     48406      8036  TIP3      OH2           -19.8989497785       30.3177667394      -34.0413392627  TIP3      7836            0.0000000000
     48407      8036  TIP3      H1            -20.7955261263       30.4315091072      -34.4442082155  TIP3      7836            0.0000000000
     48408      8036  TIP3      H2            -19.3584901750       30.1773189277      -34.8503773969  TIP3      7836            0.0000000000
     48409      8037  TIP3      OH2           -21.6565007014       32.7722610715      -46.1577558788  TIP3      7837            0.0000000000
     48410      8037  TIP3      H1            -22.3874416859       32.1409945249      -46.1862459971  TIP3      7837            0.0000000000
     48411      8037  TIP3      H2            -21.3046908815       32.7677649882      -47.0769535791  TIP3      7837            0.0000000000
     48412      8038  TIP3      OH2           -24.4291832809       27.9840338011      -39.3795141162  TIP3      7838            0.0000000000
     48413      8038  TIP3      H1            -25.3483346024       27.9827799048      -39.7020002257  TIP3      7838            0.0000000000
     48414      8038  TIP3      H2            -24.0209307563       27.3700880927      -40.0220751374  TIP3      7838            0.0000000000
     48415      8039  TIP3      OH2           -32.0329498020       32.3148446407      -42.8847667975  TIP3      7839            0.0000000000
     48416      8039  TIP3      H1            -31.7435282681       33.1317395510      -43.3601001052  TIP3      7839            0.0000000000
     48417      8039  TIP3      H2            -32.9858813190       32.3028242476      -43.0583496298  TIP3      7839            0.0000000000
     48418      8040  TIP3      OH2           -36.1101962665       27.1154300468      -48.7053935732  TIP3      7840            0.0000000000
     48419      8040  TIP3      H1            -35.5074247572       27.7590471523      -48.2914878459  TIP3      7840            0.0000000000
     48420      8040  TIP3      H2            -36.8942746988       27.1655050779      -48.1387309445  TIP3      7840            0.0000000000
     48421      8041  TIP3      OH2           -30.5728218119       30.1423221171      -43.6336309370  TIP3      7841            0.0000000000
     48422      8041  TIP3      H1            -31.1212229778       30.9379958605      -43.4575920442  TIP3      7841            0.0000000000
     48423      8041  TIP3      H2            -31.0495525549       29.4577237391      -43.1263836002  TIP3      7841            0.0000000000
     48424      8042  TIP3      OH2           -30.1034158799       34.1783519937      -36.6707185680  TIP3      7842            0.0000000000
     48425      8042  TIP3      H1            -29.7829066268       35.0972961822      -36.7083353268  TIP3      7842            0.0000000000
     48426      8042  TIP3      H2            -29.2816425993       33.6720384273      -36.5419227267  TIP3      7842            0.0000000000
     48427      8043  TIP3      OH2           -31.7616565992       34.7415067207      -44.0193223365  TIP3      7843            0.0000000000
     48428      8043  TIP3      H1            -32.7199016105       34.9585649532      -43.9904826009  TIP3      7843            0.0000000000
     48429      8043  TIP3      H2            -31.3505249105       35.5208372146      -43.5948107734  TIP3      7843            0.0000000000
     48430      8044  TIP3      OH2           -26.9020067417       30.1035694772      -37.4445565352  TIP3      7844            0.0000000000
     48431      8044  TIP3      H1            -27.4007890794       29.7046065481      -36.6966832272  TIP3      7844            0.0000000000
     48432      8044  TIP3      H2            -26.2735319113       29.3845831512      -37.6054701292  TIP3      7844            0.0000000000
     48433      8045  TIP3      OH2           -24.1988169503       31.2516344334      -48.7062731098  TIP3      7845            0.0000000000
     48434      8045  TIP3      H1            -23.9056151808       30.8184492854      -47.8755618545  TIP3      7845            0.0000000000
     48435      8045  TIP3      H2            -25.1513513954       31.1973414893      -48.5528839215  TIP3      7845            0.0000000000
     48436      8046  TIP3      OH2           -23.8623078698       34.7554332325      -35.0657232650  TIP3      7846            0.0000000000
     48437      8046  TIP3      H1            -24.6010654526       34.1997306071      -35.3874488384  TIP3      7846            0.0000000000
     48438      8046  TIP3      H2            -23.7482006785       35.4539521061      -35.7415215633  TIP3      7846            0.0000000000
     48439      8047  TIP3      OH2           -19.3845866757       35.5807300707      -48.6785173852  TIP3      7847            0.0000000000
     48440      8047  TIP3      H1            -18.7618157192       36.3112854378      -48.5234640411  TIP3      7847            0.0000000000
     48441      8047  TIP3      H2            -20.1977577415       35.9250783184      -48.2410074631  TIP3      7847            0.0000000000
     48442      8048  TIP3      OH2           -35.4628730661       22.1718698080      -35.7540445959  TIP3      7848            0.0000000000
     48443      8048  TIP3      H1            -35.8402226304       22.5526852495      -34.9323558905  TIP3      7848            0.0000000000
     48444      8048  TIP3      H2            -35.7395331383       21.2459432866      -35.6518837896  TIP3      7848            0.0000000000
     48445      8049  TIP3      OH2           -23.4382968146       29.9579075400      -46.4387035520  TIP3      7849            0.0000000000
     48446      8049  TIP3      H1            -23.5784989158       29.0032300632      -46.3754569393  TIP3      7849            0.0000000000
     48447      8049  TIP3      H2            -22.4597864464       29.9836742201      -46.4173537137  TIP3      7849            0.0000000000
     48448      8050  TIP3      OH2           -36.0685156136       33.9266884541      -36.9922873094  TIP3      7850            0.0000000000
     48449      8050  TIP3      H1            -36.4101880822       34.3289715930      -37.8134562226  TIP3      7850            0.0000000000
     48450      8050  TIP3      H2            -35.9901525287       34.7634314250      -36.4912166088  TIP3      7850            0.0000000000
     48451      8051  TIP3      OH2           -31.6170176185       31.8111521128      -47.6245960320  TIP3      7851            0.0000000000
     48452      8051  TIP3      H1            -30.8454849840       31.3380097967      -47.2721149884  TIP3      7851            0.0000000000
     48453      8051  TIP3      H2            -31.4897636924       32.7275663562      -47.3113049967  TIP3      7851            0.0000000000
     48454      8052  TIP3      OH2           -34.8388470496       28.8869726406      -46.8095221855  TIP3      7852            0.0000000000
     48455      8052  TIP3      H1            -35.6230100477       29.3289058213      -46.4037064628  TIP3      7852            0.0000000000
     48456      8052  TIP3      H2            -34.3591576346       29.6394932604      -47.2147683096  TIP3      7852            0.0000000000
     48457      8053  TIP3      OH2           -26.7024120412       21.7064683058      -36.6919423060  TIP3      7853            0.0000000000
     48458      8053  TIP3      H1            -25.9609841814       21.9219169437      -36.0998243435  TIP3      7853            0.0000000000
     48459      8053  TIP3      H2            -27.0117928367       20.8330800845      -36.3728679386  TIP3      7853            0.0000000000
     48460      8054  TIP3      OH2           -26.0325587887       21.0264956821      -45.3595965446  TIP3      7854            0.0000000000
     48461      8054  TIP3      H1            -25.9086118276       21.6543397322      -46.0974651280  TIP3      7854            0.0000000000
     48462      8054  TIP3      H2            -25.5866596714       21.4945219260      -44.6148795981  TIP3      7854            0.0000000000
     48463      8055  TIP3      OH2           -28.2093173251       33.5763156256      -47.1628176358  TIP3      7855            0.0000000000
     48464      8055  TIP3      H1            -29.0438298216       33.6801107084      -46.6927636766  TIP3      7855            0.0000000000
     48465      8055  TIP3      H2            -28.0765049032       34.4887683946      -47.4920661386  TIP3      7855            0.0000000000
     48466      8056  TIP3      OH2           -28.9029270304       23.1509369091      -44.6143799482  TIP3      7856            0.0000000000
     48467      8056  TIP3      H1            -28.2641326973       23.8719214154      -44.4849380930  TIP3      7856            0.0000000000
     48468      8056  TIP3      H2            -29.1845464158       22.9202056358      -43.7031910001  TIP3      7856            0.0000000000
     48469      8057  TIP3      OH2           -28.0582461389       24.2237064501      -35.5624230329  TIP3      7857            0.0000000000
     48470      8057  TIP3      H1            -28.0764270390       24.5761771269      -34.6408350154  TIP3      7857            0.0000000000
     48471      8057  TIP3      H2            -27.7359133216       23.3062613345      -35.4654997534  TIP3      7857            0.0000000000
     48472      8058  TIP3      OH2           -28.2611743033       19.9436544775      -44.2635802417  TIP3      7858            0.0000000000
     48473      8058  TIP3      H1            -28.5955391043       20.7574650635      -43.8445706960  TIP3      7858            0.0000000000
     48474      8058  TIP3      H2            -27.4214448564       20.3099596243      -44.6535679218  TIP3      7858            0.0000000000
     48475      8059  TIP3      OH2           -31.1870716260       34.5395741540      -46.8458431825  TIP3      7859            0.0000000000
     48476      8059  TIP3      H1            -31.0740152292       35.3800923286      -47.3431313307  TIP3      7859            0.0000000000
     48477      8059  TIP3      H2            -31.6345939466       34.8381272875      -46.0346761279  TIP3      7859            0.0000000000
     48478      8060  TIP3      OH2           -32.6933171634       21.2043331254      -46.7256015488  TIP3      7860            0.0000000000
     48479      8060  TIP3      H1            -32.5650438259       22.0794369145      -46.3040697428  TIP3      7860            0.0000000000
     48480      8060  TIP3      H2            -31.7946117668       20.8306669119      -46.6441192948  TIP3      7860            0.0000000000
     48481      8061  TIP3      OH2           -22.4435987075       22.0378477523      -34.6789842929  TIP3      7861            0.0000000000
     48482      8061  TIP3      H1            -23.3428092487       22.3250837532      -34.9484868811  TIP3      7861            0.0000000000
     48483      8061  TIP3      H2            -21.9518841971       22.1003529268      -35.5151739815  TIP3      7861            0.0000000000
     48484      8062  TIP3      OH2           -23.5415789693       25.6108212931      -40.8685373951  TIP3      7862            0.0000000000
     48485      8062  TIP3      H1            -24.3422444597       25.0489572924      -40.8505458187  TIP3      7862            0.0000000000
     48486      8062  TIP3      H2            -22.9279097461       25.1377279278      -40.2632954059  TIP3      7862            0.0000000000
     48487      8063  TIP3      OH2           -34.2832490780       31.3858575556      -48.1801918869  TIP3      7863            0.0000000000
     48488      8063  TIP3      H1            -33.5417508288       31.9190460639      -47.8346926899  TIP3      7863            0.0000000000
     48489      8063  TIP3      H2            -33.7859247387       30.8760532392      -48.8432483505  TIP3      7863            0.0000000000
     48490      8064  TIP3      OH2           -35.1124539347       24.4402220529      -48.5808976249  TIP3      7864            0.0000000000
     48491      8064  TIP3      H1            -35.3326041206       25.3601698069      -48.3309631790  TIP3      7864            0.0000000000
     48492      8064  TIP3      H2            -35.9382750981       24.2521591117      -49.0911661541  TIP3      7864            0.0000000000
     48493      8065  TIP3      OH2           -22.4380886135       35.7154055835      -38.8909065088  TIP3      7865            0.0000000000
     48494      8065  TIP3      H1            -22.5305805192       35.9954029638      -39.8304212415  TIP3      7865            0.0000000000
     48495      8065  TIP3      H2            -21.4626829972       35.5561759843      -38.8703034564  TIP3      7865            0.0000000000
     48496      8066  TIP3      OH2           -34.9932868349       19.2775325222      -40.2869865808  TIP3      7866            0.0000000000
     48497      8066  TIP3      H1            -35.1275102008       19.0256026527      -41.2250851179  TIP3      7866            0.0000000000
     48498      8066  TIP3      H2            -35.2773913190       18.4380975755      -39.8460743232  TIP3      7866            0.0000000000
     48499      8067  TIP3      OH2           -36.2843638735       32.7275405239      -44.6588275272  TIP3      7867            0.0000000000
     48500      8067  TIP3      H1            -37.1455671505       33.0521325069      -44.3934813439  TIP3      7867            0.0000000000
     48501      8067  TIP3      H2            -36.0788187582       33.3683983149      -45.3776443049  TIP3      7867            0.0000000000
     48502      8068  TIP3      OH2           -36.9242485340       35.7961535778      -33.2318147706  TIP3      7868            0.0000000000
     48503      8068  TIP3      H1            -36.1249584965       35.7289903554      -32.6766778882  TIP3      7868            0.0000000000
     48504      8068  TIP3      H2            -37.4682678061       35.0726600081      -32.9015636616  TIP3      7868            0.0000000000
     48505      8069  TIP3      OH2           -32.3214989990       34.1633108685      -31.1778262439  TIP3      7869            0.0000000000
     48506      8069  TIP3      H1            -31.4019565036       34.4786804495      -31.2048191080  TIP3      7869            0.0000000000
     48507      8069  TIP3      H2            -32.5364872697       34.0137777559      -32.1190075397  TIP3      7869            0.0000000000
     48508      8070  TIP3      OH2           -27.9949601541       33.8895333219       49.7876538453  TIP3      7870            0.0000000000
     48509      8070  TIP3      H1            -28.7310543994       33.2715709039       49.7186598898  TIP3      7870            0.0000000000
     48510      8070  TIP3      H2            -27.3923187853       33.4603961199       50.4104648439  TIP3      7870            0.0000000000
     48511      8071  TIP3      OH2           -25.8913445341       33.1834130612      -32.3836139955  TIP3      7871            0.0000000000
     48512      8071  TIP3      H1            -26.3158714759       32.3329460025      -32.1066540004  TIP3      7871            0.0000000000
     48513      8071  TIP3      H2            -25.1373832195       33.1899461096      -31.7785929185  TIP3      7871            0.0000000000
     48514      8072  TIP3      OH2           -24.1203537459       33.8796743310      -49.1907206003  TIP3      7872            0.0000000000
     48515      8072  TIP3      H1            -23.7434713468       32.9868833256      -49.0671532711  TIP3      7872            0.0000000000
     48516      8072  TIP3      H2            -23.4519554928       34.3628304315      -49.7263404349  TIP3      7872            0.0000000000
     48517      8073  TIP3      OH2           -36.6196764516       30.0063593037      -31.7240909180  TIP3      7873            0.0000000000
     48518      8073  TIP3      H1            -36.5211033881       29.0656175825      -31.9042149663  TIP3      7873            0.0000000000
     48519      8073  TIP3      H2            -37.5700169382       30.0419060134      -31.9648695969  TIP3      7873            0.0000000000
     48520      8074  TIP3      OH2           -32.2692184797       29.6538193824      -49.5141789469  TIP3      7874            0.0000000000
     48521      8074  TIP3      H1            -31.9864232084       29.3881437761      -48.6221971127  TIP3      7874            0.0000000000
     48522      8074  TIP3      H2            -31.5665834921       29.3156659528      -50.0751159582  TIP3      7874            0.0000000000
     48523      8075  TIP3      OH2           -30.4366958956       29.5469480517      -32.5827155072  TIP3      7875            0.0000000000
     48524      8075  TIP3      H1            -30.6835339021       30.0900872299      -33.3554857044  TIP3      7875            0.0000000000
     48525      8075  TIP3      H2            -30.3595658455       28.6349129893      -32.9611501974  TIP3      7875            0.0000000000
     48526      8076  TIP3      OH2           -24.7302930198       29.2455685700      -35.0597574141  TIP3      7876            0.0000000000
     48527      8076  TIP3      H1            -23.8698026731       29.7340504749      -35.0749624411  TIP3      7876            0.0000000000
     48528      8076  TIP3      H2            -25.3142523792       30.0302523463      -34.9900373047  TIP3      7876            0.0000000000
     48529      8077  TIP3      OH2           -36.1792612412       26.5485605992      -32.3040035274  TIP3      7877            0.0000000000
     48530      8077  TIP3      H1            -35.2866596933       26.2007049274      -32.2262265819  TIP3      7877            0.0000000000
     48531      8077  TIP3      H2            -36.3441057114       26.9491139406      -31.4176624943  TIP3      7877            0.0000000000
     48532      8078  TIP3      OH2           -31.3788890680       27.9626981476      -47.0877087768  TIP3      7878            0.0000000000
     48533      8078  TIP3      H1            -32.0732536201       27.4244041854      -46.6559999892  TIP3      7878            0.0000000000
     48534      8078  TIP3      H2            -31.0101680930       27.3315221638      -47.7313280088  TIP3      7878            0.0000000000
     48535      8079  TIP3      OH2           -32.1039686064       25.8165994096      -35.2022907351  TIP3      7879            0.0000000000
     48536      8079  TIP3      H1            -32.7480206550       26.5183621795      -35.4004906117  TIP3      7879            0.0000000000
     48537      8079  TIP3      H2            -31.4107660413       26.0493620956      -35.8620300315  TIP3      7879            0.0000000000
     48538      8080  TIP3      OH2           -30.1208912393       26.2334473939      -49.1420878225  TIP3      7880            0.0000000000
     48539      8080  TIP3      H1            -29.8892791412       25.7997718494      -49.9837714140  TIP3      7880            0.0000000000
     48540      8080  TIP3      H2            -29.2303192336       26.2468724233      -48.7166142656  TIP3      7880            0.0000000000
     48541      8081  TIP3      OH2           -26.9058005637       28.3141435531      -31.7850719165  TIP3      7881            0.0000000000
     48542      8081  TIP3      H1            -26.1208404411       27.9017518948      -32.1907590191  TIP3      7881            0.0000000000
     48543      8081  TIP3      H2            -27.2398921385       27.5888725502      -31.2207953323  TIP3      7881            0.0000000000
     48544      8082  TIP3      OH2           -21.4621224937       28.0693148655       50.0614359820  TIP3      7882            0.0000000000
     48545      8082  TIP3      H1            -20.8813915287       27.7779210350       49.3373572033  TIP3      7882            0.0000000000
     48546      8082  TIP3      H2            -21.2199957099       29.0244302278       50.0627224436  TIP3      7882            0.0000000000
     48547      8083  TIP3      OH2           -31.6590888786       23.2838286539      -34.4454110193  TIP3      7883            0.0000000000
     48548      8083  TIP3      H1            -31.4640719244       22.6935926102      -35.2083974810  TIP3      7883            0.0000000000
     48549      8083  TIP3      H2            -31.7234489388       24.1740254910      -34.8732432614  TIP3      7883            0.0000000000
     48550      8084  TIP3      OH2           -31.2867416924       21.4838561600      -36.4730535806  TIP3      7884            0.0000000000
     48551      8084  TIP3      H1            -30.6595756952       21.8672377895      -37.1306678667  TIP3      7884            0.0000000000
     48552      8084  TIP3      H2            -32.1151731517       21.5539756342      -36.9865913167  TIP3      7884            0.0000000000
     48553      8085  TIP3      OH2           -30.0206516865       26.7059946698      -36.7025019775  TIP3      7885            0.0000000000
     48554      8085  TIP3      H1            -29.0518068034       26.7383741971      -36.7537764289  TIP3      7885            0.0000000000
     48555      8085  TIP3      H2            -30.2967375575       27.5901559281      -37.0281744413  TIP3      7885            0.0000000000
     48556      8086  TIP3      OH2           -24.9923389372       24.4174636395      -31.5071592762  TIP3      7886            0.0000000000
     48557      8086  TIP3      H1            -24.8476353211       23.4870120219      -31.7166689578  TIP3      7886            0.0000000000
     48558      8086  TIP3      H2            -24.1042077017       24.7642293561      -31.7344190249  TIP3      7886            0.0000000000
     48559      8087  TIP3      OH2           -23.9396983367       27.6546438601      -32.8664055834  TIP3      7887            0.0000000000
     48560      8087  TIP3      H1            -24.2123849785       28.1845847841      -33.6451330680  TIP3      7887            0.0000000000
     48561      8087  TIP3      H2            -23.0319246780       27.3773910957      -33.1060379445  TIP3      7887            0.0000000000
     48562      8088  TIP3      OH2           -33.4814444772       24.3811539328      -32.2912421980  TIP3      7888            0.0000000000
     48563      8088  TIP3      H1            -34.1838681352       23.7073195768      -32.2455196892  TIP3      7888            0.0000000000
     48564      8088  TIP3      H2            -32.9979065867       24.1031335529      -33.0902001896  TIP3      7888            0.0000000000
     48565      8089  TIP3      OH2           -30.5044984565       18.9283705424      -36.3367449900  TIP3      7889            0.0000000000
     48566      8089  TIP3      H1            -30.8572717348       19.8470633605      -36.3198449891  TIP3      7889            0.0000000000
     48567      8089  TIP3      H2            -31.2751245195       18.4363258226      -36.6734268577  TIP3      7889            0.0000000000
     48568      8090  TIP3      OH2           -29.3543194320       23.1758453823      -32.3799720079  TIP3      7890            0.0000000000
     48569      8090  TIP3      H1            -29.9754423732       22.8422182887      -31.6994455631  TIP3      7890            0.0000000000
     48570      8090  TIP3      H2            -29.9161334604       23.0995374588      -33.1695813338  TIP3      7890            0.0000000000
     48571      8091  TIP3      OH2           -26.6461824131       22.2734494700      -33.1938054235  TIP3      7891            0.0000000000
     48572      8091  TIP3      H1            -27.5901399956       22.2763579839      -32.9800164333  TIP3      7891            0.0000000000
     48573      8091  TIP3      H2            -26.2877808849       21.7687117797      -32.4283145056  TIP3      7891            0.0000000000
     48574      8092  TIP3      OH2           -25.0688605507       20.8467797121      -31.4378738210  TIP3      7892            0.0000000000
     48575      8092  TIP3      H1            -25.1436554393       19.8735260889      -31.4880895442  TIP3      7892            0.0000000000
     48576      8092  TIP3      H2            -25.2165510730       21.0478310633      -30.4922907112  TIP3      7892            0.0000000000
     48577      8093  TIP3      OH2           -35.2792491558       22.3577590955      -32.1882748115  TIP3      7893            0.0000000000
     48578      8093  TIP3      H1            -34.9271131977       21.5757845060      -32.6448925442  TIP3      7893            0.0000000000
     48579      8093  TIP3      H2            -35.5553675534       21.9590194541      -31.3232649830  TIP3      7893            0.0000000000
     48580      8094  TIP3      OH2           -30.5260895328       18.6206005099      -33.5012289785  TIP3      7894            0.0000000000
     48581      8094  TIP3      H1            -29.7463878689       18.0387948622      -33.5118640085  TIP3      7894            0.0000000000
     48582      8094  TIP3      H2            -30.6353914540       18.7224289902      -34.4650348128  TIP3      7894            0.0000000000
     48583      8095  TIP3      OH2           -30.5167898782       19.5740329841      -30.9536384048  TIP3      7895            0.0000000000
     48584      8095  TIP3      H1            -30.5870585576       19.2198182833      -31.8688343234  TIP3      7895            0.0000000000
     48585      8095  TIP3      H2            -30.9039988388       20.4633003749      -31.0492823450  TIP3      7895            0.0000000000
     48586      8096  TIP3      OH2           -30.5563095828       36.8141853593      -48.2571857394  TIP3      7896            0.0000000000
     48587      8096  TIP3      H1            -29.6986710371       36.9679112176      -47.8341873345  TIP3      7896            0.0000000000
     48588      8096  TIP3      H2            -30.3239761280       36.9080184333      -49.2089604823  TIP3      7896            0.0000000000
     48589      8097  TIP3      OH2           -36.9277319233       31.1019443944      -48.3688665723  TIP3      7897            0.0000000000
     48590      8097  TIP3      H1            -35.9720761570       31.2990267280      -48.1918706272  TIP3      7897            0.0000000000
     48591      8097  TIP3      H2            -36.8552682102       30.7334664247      -49.2575159845  TIP3      7897            0.0000000000
     48592      8098  TIP3      OH2           -37.8250520262       36.7687155584      -44.6079125139  TIP3      7898            0.0000000000
     48593      8098  TIP3      H1            -38.7883871020       36.9077471891      -44.6064137213  TIP3      7898            0.0000000000
     48594      8098  TIP3      H2            -37.7852719107       36.2240606807      -43.8066603141  TIP3      7898            0.0000000000
     48595      8099  TIP3      OH2           -36.7600148148       34.8336802374      -42.2345353667  TIP3      7899            0.0000000000
     48596      8099  TIP3      H1            -36.9446401124       33.8839064060      -42.2917917251  TIP3      7899            0.0000000000
     48597      8099  TIP3      H2            -36.7404195881       34.9808920028      -41.2766435450  TIP3      7899            0.0000000000
     48598      8100  TIP3      OH2           -19.7203181920       35.7283516272      -39.0123990158  TIP3      7900            0.0000000000
     48599      8100  TIP3      H1            -19.5552038251       36.2174421100      -38.1776354284  TIP3      7900            0.0000000000
     48600      8100  TIP3      H2            -19.0341118453       36.0985059747      -39.5768291096  TIP3      7900            0.0000000000
     48601      8101  TIP3      OH2           -20.3081753149       34.9000231650      -35.7464825296  TIP3      7901            0.0000000000
     48602      8101  TIP3      H1            -20.6082094243       34.2381893572      -36.4038603278  TIP3      7901            0.0000000000
     48603      8101  TIP3      H2            -19.9098982439       34.2954085877      -35.0863416964  TIP3      7901            0.0000000000
     48604      8102  TIP3      OH2           -21.7237843005       31.0909757399      -31.2883915796  TIP3      7902            0.0000000000
     48605      8102  TIP3      H1            -22.5593636911       31.0604625954      -30.7703990533  TIP3      7902            0.0000000000
     48606      8102  TIP3      H2            -21.3626666840       31.9536240179      -30.9841417792  TIP3      7902            0.0000000000
     48607      8103  TIP3      OH2           -20.8069161171       29.4494024906      -46.2376909545  TIP3      7903            0.0000000000
     48608      8103  TIP3      H1            -19.9193736566       29.8293833152      -46.0495735536  TIP3      7903            0.0000000000
     48609      8103  TIP3      H2            -20.9743283676       28.9384283404      -45.4263758346  TIP3      7903            0.0000000000
     48610      8104  TIP3      OH2           -20.2979190867       27.4463259337      -43.7445623150  TIP3      7904            0.0000000000
     48611      8104  TIP3      H1            -21.0840534226       26.8700251657      -43.5842921137  TIP3      7904            0.0000000000
     48612      8104  TIP3      H2            -20.0476608453       27.6944613356      -42.8338998499  TIP3      7904            0.0000000000
     48613      8105  TIP3      OH2           -20.5187276251       30.0571286576      -39.3269788968  TIP3      7905            0.0000000000
     48614      8105  TIP3      H1            -19.9385394482       29.2623201750      -39.3647995236  TIP3      7905            0.0000000000
     48615      8105  TIP3      H2            -19.9090593979       30.7604879031      -39.6207792600  TIP3      7905            0.0000000000
     48616      8106  TIP3      OH2           -21.7376177380       32.8523892071      -36.7058322498  TIP3      7906            0.0000000000
     48617      8106  TIP3      H1            -22.4540347684       33.3376094259      -36.2653113371  TIP3      7906            0.0000000000
     48618      8106  TIP3      H2            -22.1601740005       32.6948331740      -37.5856447169  TIP3      7906            0.0000000000
     48619      8107  TIP3      OH2           -19.7474354342       27.3204244161      -47.7682592478  TIP3      7907            0.0000000000
     48620      8107  TIP3      H1            -20.3946893888       27.5766679804      -48.4522478878  TIP3      7907            0.0000000000
     48621      8107  TIP3      H2            -19.8011055478       28.1013789430      -47.1834690834  TIP3      7907            0.0000000000
     48622      8108  TIP3      OH2           -22.0757201569       24.1884652473      -48.4026611162  TIP3      7908            0.0000000000
     48623      8108  TIP3      H1            -22.3335350208       25.0049423832      -48.8698180647  TIP3      7908            0.0000000000
     48624      8108  TIP3      H2            -21.5242525594       23.7674589522      -49.0880666406  TIP3      7908            0.0000000000
     48625      8109  TIP3      OH2           -22.2497352014       25.8235910363      -43.2013057734  TIP3      7909            0.0000000000
     48626      8109  TIP3      H1            -22.4686322051       24.9136184218      -43.4371986908  TIP3      7909            0.0000000000
     48627      8109  TIP3      H2            -22.5317089838       25.8585949066      -42.2564101975  TIP3      7909            0.0000000000
     48628      8110  TIP3      OH2           -36.7997659133       28.8944601068      -39.6649995222  TIP3      7910            0.0000000000
     48629      8110  TIP3      H1            -36.8006241386       28.2860194465      -40.4272972201  TIP3      7910            0.0000000000
     48630      8110  TIP3      H2            -36.0621402972       28.5064901644      -39.1489830665  TIP3      7910            0.0000000000
     48631      8111  TIP3      OH2           -21.2768153008       27.7831341776      -33.8158864102  TIP3      7911            0.0000000000
     48632      8111  TIP3      H1            -20.8272101999       26.9093184589      -33.7770610591  TIP3      7911            0.0000000000
     48633      8111  TIP3      H2            -20.5377519441       28.4179503384      -33.8548624111  TIP3      7911            0.0000000000
     48634      8112  TIP3      OH2           -20.1628452613       25.2893088453      -33.5649444368  TIP3      7912            0.0000000000
     48635      8112  TIP3      H1            -21.0496546368       25.0054803969      -33.2664795901  TIP3      7912            0.0000000000
     48636      8112  TIP3      H2            -19.6146422764       24.9629275092      -32.8141977738  TIP3      7912            0.0000000000
     48637      8113  TIP3      OH2           -22.1758856599       21.8633130559      -50.1640438980  TIP3      7913            0.0000000000
     48638      8113  TIP3      H1            -21.6023012291       21.4605850286      -49.4929361196  TIP3      7913            0.0000000000
     48639      8113  TIP3      H2            -23.0563611622       21.7296532561      -49.7924224551  TIP3      7913            0.0000000000
     48640      8114  TIP3      OH2           -22.9819143771       23.6205172539      -45.0202684652  TIP3      7914            0.0000000000
     48641      8114  TIP3      H1            -22.6543792220       22.7462664252      -44.7227740684  TIP3      7914            0.0000000000
     48642      8114  TIP3      H2            -22.2116457441       23.8824774040      -45.5413353899  TIP3      7914            0.0000000000
     48643      8115  TIP3      OH2           -21.8331496164       24.2208603011      -39.2215581665  TIP3      7915            0.0000000000
     48644      8115  TIP3      H1            -20.8426465169       24.3176220320      -39.2178111884  TIP3      7915            0.0000000000
     48645      8115  TIP3      H2            -21.9709297951       24.2882802313      -38.2643632150  TIP3      7915            0.0000000000
     48646      8116  TIP3      OH2           -21.8907318815       24.8749030815      -36.6172784819  TIP3      7916            0.0000000000
     48647      8116  TIP3      H1            -22.8191137371       25.1544394081      -36.4734541814  TIP3      7916            0.0000000000
     48648      8116  TIP3      H2            -21.4614254611       25.7571769578      -36.7069094571  TIP3      7916            0.0000000000
     48649      8117  TIP3      OH2           -37.1971540232       22.9725141632      -33.8933888409  TIP3      7917            0.0000000000
     48650      8117  TIP3      H1            -36.5180762470       23.2630490870      -33.2485098936  TIP3      7917            0.0000000000
     48651      8117  TIP3      H2            -37.2962608786       22.0389189487      -33.6325405897  TIP3      7917            0.0000000000
     48652      8118  TIP3      OH2           -19.3657340827       18.9347136065      -31.2387011139  TIP3      7918            0.0000000000
     48653      8118  TIP3      H1            -19.0611977469       18.2413519861      -31.8534964477  TIP3      7918            0.0000000000
     48654      8118  TIP3      H2            -19.5535235107       19.6359370717      -31.9111941076  TIP3      7918            0.0000000000
     48655      8119  TIP3      OH2           -21.7867788110       21.1439055019      -44.7972614748  TIP3      7919            0.0000000000
     48656      8119  TIP3      H1            -21.4796395577       20.7172533265      -43.9709927826  TIP3      7919            0.0000000000
     48657      8119  TIP3      H2            -22.3893057978       20.4465768367      -45.1079260138  TIP3      7919            0.0000000000
     48658      8120  TIP3      OH2           -36.5744820159       21.4548822157      -39.9511558087  TIP3      7920            0.0000000000
     48659      8120  TIP3      H1            -35.9548771750       20.7010778024      -39.8386618415  TIP3      7920            0.0000000000
     48660      8120  TIP3      H2            -36.0241904868       22.2325882849      -39.7766756291  TIP3      7920            0.0000000000
     48661      8121  TIP3      OH2           -37.6299681578       24.5707644215      -39.3164281157  TIP3      7921            0.0000000000
     48662      8121  TIP3      H1            -36.9064512138       24.5563334388      -39.9728608013  TIP3      7921            0.0000000000
     48663      8121  TIP3      H2            -37.3832964183       25.2961565800      -38.7415252763  TIP3      7921            0.0000000000
     48664      8122  TIP3      OH2           -20.4055424195       20.7336060005      -32.8601548529  TIP3      7922            0.0000000000
     48665      8122  TIP3      H1            -20.9961363413       21.3582144235      -32.3861599238  TIP3      7922            0.0000000000
     48666      8122  TIP3      H2            -20.7629402975       20.7978986659      -33.7629085764  TIP3      7922            0.0000000000
     48667      8123  TIP3      OH2           -20.0555058101       21.0100234047      -48.3314856965  TIP3      7923            0.0000000000
     48668      8123  TIP3      H1            -19.5874565817       20.5835269175      -49.0669006893  TIP3      7923            0.0000000000
     48669      8123  TIP3      H2            -19.3704879913       21.6477223941      -48.0370266403  TIP3      7923            0.0000000000
     48670      8124  TIP3      OH2           -37.3705422653       20.8390627024      -45.2138137218  TIP3      7924            0.0000000000
     48671      8124  TIP3      H1            -38.3400598977       20.7657696184      -45.1855274878  TIP3      7924            0.0000000000
     48672      8124  TIP3      H2            -37.2714247564       21.3440682080      -46.0475904146  TIP3      7924            0.0000000000
     48673      8125  TIP3      OH2           -23.1508248297       35.6650496930      -43.5594648763  TIP3      7925            0.0000000000
     48674      8125  TIP3      H1            -22.2890148687       35.5983127430      -44.0232170679  TIP3      7925            0.0000000000
     48675      8125  TIP3      H2            -22.9133636863       36.1837515017      -42.7660878581  TIP3      7925            0.0000000000
     48676      8126  TIP3      OH2           -37.6899090197       19.2131195962      -36.7743629944  TIP3      7926            0.0000000000
     48677      8126  TIP3      H1            -38.5745329531       19.0973101557      -36.3893638291  TIP3      7926            0.0000000000
     48678      8126  TIP3      H2            -37.9041143823       19.8141256221      -37.5061081696  TIP3      7926            0.0000000000
     48679      8127  TIP3      OH2           -35.7488357837       32.6420135652      -32.7975369047  TIP3      7927            0.0000000000
     48680      8127  TIP3      H1            -36.5922527127       32.6928893596      -33.2644913568  TIP3      7927            0.0000000000
     48681      8127  TIP3      H2            -36.0160193439       32.8610073838      -31.8900869361  TIP3      7927            0.0000000000
     48682      8128  TIP3      OH2           -32.7935887629       33.6801553712      -36.3775946165  TIP3      7928            0.0000000000
     48683      8128  TIP3      H1            -33.0176775109       34.5607330532      -36.7702019369  TIP3      7928            0.0000000000
     48684      8128  TIP3      H2            -31.8208464662       33.8366720235      -36.2807863163  TIP3      7928            0.0000000000
     48685      8129  TIP3      OH2           -28.3143689507       34.9490455262      -33.8033119955  TIP3      7929            0.0000000000
     48686      8129  TIP3      H1            -28.4286617294       34.6755060962      -32.8764239856  TIP3      7929            0.0000000000
     48687      8129  TIP3      H2            -27.4634599125       35.4323371737      -33.7765957499  TIP3      7929            0.0000000000
     48688      8130  TIP3      OH2           -25.9303119276       36.7215340581      -34.2002634894  TIP3      7930            0.0000000000
     48689      8130  TIP3      H1            -25.2728331239       36.0791313194      -34.5046021738  TIP3      7930            0.0000000000
     48690      8130  TIP3      H2            -25.6338576085       36.8263241747      -33.2664355117  TIP3      7930            0.0000000000
     48691      8131  TIP3      OH2           -21.2110389407       18.8398355337      -35.1344938946  TIP3      7931            0.0000000000
     48692      8131  TIP3      H1            -21.8891457575       19.2669937993      -35.6689204658  TIP3      7931            0.0000000000
     48693      8131  TIP3      H2            -21.0864076612       17.9875742973      -35.5899582141  TIP3      7931            0.0000000000
     48694      8132  TIP3      OH2           -35.5661273031       36.5914352977      -36.5333684087  TIP3      7932            0.0000000000
     48695      8132  TIP3      H1            -36.2481556724       37.1136704364      -37.0364493443  TIP3      7932            0.0000000000
     48696      8132  TIP3      H2            -35.7328187378       36.9654281571      -35.6569696980  TIP3      7932            0.0000000000
     48697      8133  TIP3      OH2           -33.0124272245       36.0618639742      -37.4260218702  TIP3      7933            0.0000000000
     48698      8133  TIP3      H1            -33.8410607532       36.4764607586      -37.0989749420  TIP3      7933            0.0000000000
     48699      8133  TIP3      H2            -32.8096814228       36.5830450875      -38.2299745633  TIP3      7933            0.0000000000
     48700      8134  TIP3      OH2           -28.0735597889       36.2242744914      -38.1445023863  TIP3      7934            0.0000000000
     48701      8134  TIP3      H1            -28.8180888894       36.3946360457      -38.7619397418  TIP3      7934            0.0000000000
     48702      8134  TIP3      H2            -27.9982681422       37.1009158299      -37.7306404540  TIP3      7934            0.0000000000
     48703      8135  TIP3      OH2           -26.2421402861       34.8187710013      -36.7265230302  TIP3      7935            0.0000000000
     48704      8135  TIP3      H1            -26.9866971389       35.2960166761      -37.1668212022  TIP3      7935            0.0000000000
     48705      8135  TIP3      H2            -25.5046944132       35.3606591240      -37.0498129263  TIP3      7935            0.0000000000
     48706      8136  TIP3      OH2           -23.7062183117       37.0108738852      -37.0018150102  TIP3      7936            0.0000000000
     48707      8136  TIP3      H1            -24.0314769652       37.8810636327      -37.2832334365  TIP3      7936            0.0000000000
     48708      8136  TIP3      H2            -23.3641133303       36.6266948497      -37.8519397832  TIP3      7936            0.0000000000
     48709      8137  TIP3      OH2           -35.6225460043       35.3941939085      -39.2181486363  TIP3      7937            0.0000000000
     48710      8137  TIP3      H1            -35.0709118656       35.6784860667      -38.4716930710  TIP3      7937            0.0000000000
     48711      8137  TIP3      H2            -34.9240943406       35.0950736273      -39.8489967985  TIP3      7937            0.0000000000
     48712      8138  TIP3      OH2           -33.6737818040       34.4604158882      -40.8370092905  TIP3      7938            0.0000000000
     48713      8138  TIP3      H1            -33.4028176744       33.5507285279      -41.0450633672  TIP3      7938            0.0000000000
     48714      8138  TIP3      H2            -32.9013756119       34.6936578011      -40.2714342457  TIP3      7938            0.0000000000
     48715      8139  TIP3      OH2           -31.4289385417       34.3641993735      -39.4502648215  TIP3      7939            0.0000000000
     48716      8139  TIP3      H1            -30.9476558502       33.5911661991      -39.7997737023  TIP3      7939            0.0000000000
     48717      8139  TIP3      H2            -31.1209278887       34.3754218672      -38.5253509580  TIP3      7939            0.0000000000
     48718      8140  TIP3      OH2           -27.8342516437       20.1927501130      -40.7790172336  TIP3      7940            0.0000000000
     48719      8140  TIP3      H1            -28.6291111381       19.8195882979      -40.3597616557  TIP3      7940            0.0000000000
     48720      8140  TIP3      H2            -27.7289324251       19.6141541202      -41.5380828628  TIP3      7940            0.0000000000
     48721      8141  TIP3      OH2           -22.5129870024       18.4409158878      -40.9617251793  TIP3      7941            0.0000000000
     48722      8141  TIP3      H1            -21.8488208697       18.9939773860      -41.4395842926  TIP3      7941            0.0000000000
     48723      8141  TIP3      H2            -23.3427867288       18.6381511152      -41.4575669419  TIP3      7941            0.0000000000
     48724      8142  TIP3      OH2           -20.8322349325       19.5905994534      -42.7493062276  TIP3      7942            0.0000000000
     48725      8142  TIP3      H1            -20.1971207510       19.0070797229      -43.2327426444  TIP3      7942            0.0000000000
     48726      8142  TIP3      H2            -20.2458935402       20.3421224201      -42.4807427410  TIP3      7942            0.0000000000
     48727      8143  TIP3      OH2           -34.9910007125       18.7589615782      -43.0751934980  TIP3      7943            0.0000000000
     48728      8143  TIP3      H1            -35.8440891250       18.6283160721      -43.5384924962  TIP3      7943            0.0000000000
     48729      8143  TIP3      H2            -34.5352394605       17.9061717566      -43.2643002287  TIP3      7943            0.0000000000
     48730      8144  TIP3      OH2           -36.9443276928       18.9651686306      -47.6843638931  TIP3      7944            0.0000000000
     48731      8144  TIP3      H1            -36.3582332051       19.5800852635      -48.1818166895  TIP3      7944            0.0000000000
     48732      8144  TIP3      H2            -37.1141732836       19.5199167220      -46.9098238993  TIP3      7944            0.0000000000
     48733      8145  TIP3      OH2           -30.9256563584       18.2900420882      -43.1159709264  TIP3      7945            0.0000000000
     48734      8145  TIP3      H1            -30.3608225353       18.9249193944      -43.5642875589  TIP3      7945            0.0000000000
     48735      8145  TIP3      H2            -30.8073315960       18.5357160898      -42.1837175972  TIP3      7945            0.0000000000
     48736      8146  TIP3      OH2           -25.0165511440       18.7785841793      -42.0975203195  TIP3      7946            0.0000000000
     48737      8146  TIP3      H1            -25.5849301200       18.8216841898      -42.8788994703  TIP3      7946            0.0000000000
     48738      8146  TIP3      H2            -25.5015900225       18.1319910685      -41.5425479253  TIP3      7946            0.0000000000
     48739      8147  TIP3      OH2           -23.7178205193       18.7577017129      -45.8898105197  TIP3      7947            0.0000000000
     48740      8147  TIP3      H1            -24.3828849017       19.4386462009      -46.0559159288  TIP3      7947            0.0000000000
     48741      8147  TIP3      H2            -24.1674733790       18.1134515045      -45.3047230192  TIP3      7947            0.0000000000
     48742      8148  TIP3      OH2           -36.3836577743       34.7648220249      -46.3948002326  TIP3      7948            0.0000000000
     48743      8148  TIP3      H1            -37.3054122554       34.5496336020      -46.6079875157  TIP3      7948            0.0000000000
     48744      8148  TIP3      H2            -36.4451759180       35.7340072680      -46.4826165871  TIP3      7948            0.0000000000
     48745      8149  TIP3      OH2           -34.8764920239       20.3993688229      -48.6494885869  TIP3      7949            0.0000000000
     48746      8149  TIP3      H1            -34.2992957433       19.8574739748      -49.2000308304  TIP3      7949            0.0000000000
     48747      8149  TIP3      H2            -34.2328170373       20.6906763874      -47.9792296509  TIP3      7949            0.0000000000
     48748      8150  TIP3      OH2           -29.6034625071       20.9470184625      -46.4572778197  TIP3      7950            0.0000000000
     48749      8150  TIP3      H1            -29.2431965822       20.3413610308      -45.7876636239  TIP3      7950            0.0000000000
     48750      8150  TIP3      H2            -29.5495861732       21.7849136466      -45.9604595141  TIP3      7950            0.0000000000
     48751      8151  TIP3      OH2           -27.6937914752       36.0676062238      -48.0688480919  TIP3      7951            0.0000000000
     48752      8151  TIP3      H1            -26.7165529562       36.1046677678      -47.9575729209  TIP3      7951            0.0000000000
     48753      8151  TIP3      H2            -27.7567024135       35.6446172738      -48.9496902630  TIP3      7951            0.0000000000
     48754      8152  TIP3      OH2           -21.1402389657       35.2651255055      -45.0893683537  TIP3      7952            0.0000000000
     48755      8152  TIP3      H1            -21.3752809603       34.3927505076      -45.4823196338  TIP3      7952            0.0000000000
     48756      8152  TIP3      H2            -21.2402363978       35.8642001034      -45.8636772573  TIP3      7952            0.0000000000
     48757      8153  TIP3      OH2           -35.8935648141       19.5473241789      -33.6070082513  TIP3      7953            0.0000000000
     48758      8153  TIP3      H1            -36.3455291105       18.6808082711      -33.4702200661  TIP3      7953            0.0000000000
     48759      8153  TIP3      H2            -35.0373850556       19.3712180248      -33.1893231870  TIP3      7953            0.0000000000
     48760      8154  TIP3      OH2           -33.4405626191       18.9458283385      -31.5947244569  TIP3      7954            0.0000000000
     48761      8154  TIP3      H1            -32.5111401192       18.8713937489      -31.8808392366  TIP3      7954            0.0000000000
     48762      8154  TIP3      H2            -33.5902000267       18.0251766235      -31.3185533846  TIP3      7954            0.0000000000
     48763      8155  TIP3      OH2           -34.1431757116       36.3673303156      -49.0119450448  TIP3      7955            0.0000000000
     48764      8155  TIP3      H1            -34.7298816555       36.5369978200      -48.2504692027  TIP3      7955            0.0000000000
     48765      8155  TIP3      H2            -33.7791054476       35.5225829856      -48.7290155657  TIP3      7955            0.0000000000
     48766      8156  TIP3      OH2           -25.1540090369       18.1581869594      -31.8560440969  TIP3      7956            0.0000000000
     48767      8156  TIP3      H1            -25.0412573942       17.5878426674      -31.0560215867  TIP3      7956            0.0000000000
     48768      8156  TIP3      H2            -24.2270487141       18.1273005766      -32.1622436668  TIP3      7956            0.0000000000
     48769      8157  TIP3      OH2           -22.1810128423       34.2005973797      -33.0731067482  TIP3      7957            0.0000000000
     48770      8157  TIP3      H1            -22.9773912441       34.2684209111      -33.6451085460  TIP3      7957            0.0000000000
     48771      8157  TIP3      H2            -22.0325630654       35.1433130489      -32.8951118914  TIP3      7957            0.0000000000
     48772      8158  TIP3      OH2            -7.3684878943       28.1579920360      -43.1242527050  TIP3      7958            0.0000000000
     48773      8158  TIP3      H1             -7.5233796787       29.0366439360      -42.7431868739  TIP3      7958            0.0000000000
     48774      8158  TIP3      H2             -8.0579348668       28.1442776436      -43.8122937908  TIP3      7958            0.0000000000
     48775      8159  TIP3      OH2            -8.5403220658       27.2297191741      -39.7322079855  TIP3      7959            0.0000000000
     48776      8159  TIP3      H1             -8.5198285688       26.7692847951      -38.8601082885  TIP3      7959            0.0000000000
     48777      8159  TIP3      H2             -9.1759781144       26.6982510618      -40.2491431399  TIP3      7959            0.0000000000
     48778      8160  TIP3      OH2           -16.5312390785       26.8507653312      -38.2780257601  TIP3      7960            0.0000000000
     48779      8160  TIP3      H1            -16.3951470885       26.1263850593      -37.6363970976  TIP3      7960            0.0000000000
     48780      8160  TIP3      H2            -15.9330001963       27.5255499931      -37.9310113158  TIP3      7960            0.0000000000
     48781      8161  TIP3      OH2            -5.2319303117       29.8386172333      -41.0699554914  TIP3      7961            0.0000000000
     48782      8161  TIP3      H1             -5.4024322517       29.2018409273      -40.3332328039  TIP3      7961            0.0000000000
     48783      8161  TIP3      H2             -5.2106820503       30.6834975852      -40.6106696309  TIP3      7961            0.0000000000
     48784      8162  TIP3      OH2           -15.3858999380       31.6899739019      -39.8577551149  TIP3      7962            0.0000000000
     48785      8162  TIP3      H1            -15.7024395949       30.7924776203      -40.1086545564  TIP3      7962            0.0000000000
     48786      8162  TIP3      H2            -14.4345815982       31.5113449756      -39.9691026075  TIP3      7962            0.0000000000
     48787      8163  TIP3      OH2           -18.6627078921       24.9922176005      -44.1942691560  TIP3      7963            0.0000000000
     48788      8163  TIP3      H1            -19.0447046710       25.8707604009      -44.0113629473  TIP3      7963            0.0000000000
     48789      8163  TIP3      H2            -19.2370390438       24.6597829643      -44.9041946034  TIP3      7963            0.0000000000
     48790      8164  TIP3      OH2           -18.1890345332       27.2817990818      -41.7036596890  TIP3      7964            0.0000000000
     48791      8164  TIP3      H1            -17.7957744013       26.3815908943      -41.5864783356  TIP3      7964            0.0000000000
     48792      8164  TIP3      H2            -17.6083318780       27.6932893762      -42.3600021324  TIP3      7964            0.0000000000
     48793      8165  TIP3      OH2            -7.9846509647       35.1610236198      -41.5019775762  TIP3      7965            0.0000000000
     48794      8165  TIP3      H1             -7.0984129051       34.7674663241      -41.6796547034  TIP3      7965            0.0000000000
     48795      8165  TIP3      H2             -8.2498271164       34.6616744526      -40.7200381504  TIP3      7965            0.0000000000
     48796      8166  TIP3      OH2           -10.2759301695       30.0812213312      -39.1301986014  TIP3      7966            0.0000000000
     48797      8166  TIP3      H1            -10.0104911719       29.3919119430      -39.7570398736  TIP3      7966            0.0000000000
     48798      8166  TIP3      H2             -9.4406432014       30.1898069927      -38.6212973519  TIP3      7966            0.0000000000
     48799      8167  TIP3      OH2            -1.7556554396       21.3093028742      -38.8012061614  TIP3      7967            0.0000000000
     48800      8167  TIP3      H1             -1.6989353143       21.8737546496      -38.0028164410  TIP3      7967            0.0000000000
     48801      8167  TIP3      H2             -0.8743690478       21.5121297288      -39.1646086335  TIP3      7967            0.0000000000
     48802      8168  TIP3      OH2            -6.7546118954       24.2796858127      -38.5945809805  TIP3      7968            0.0000000000
     48803      8168  TIP3      H1             -6.5725337157       23.3154129915      -38.6390028344  TIP3      7968            0.0000000000
     48804      8168  TIP3      H2             -7.0917028085       24.4204266703      -39.4890753883  TIP3      7968            0.0000000000
     48805      8169  TIP3      OH2           -13.9104025561       22.0599955999      -42.0051572859  TIP3      7969            0.0000000000
     48806      8169  TIP3      H1            -13.7432693241       22.8539216946      -42.5685427017  TIP3      7969            0.0000000000
     48807      8169  TIP3      H2            -14.2913465648       21.4646082400      -42.6771542139  TIP3      7969            0.0000000000
     48808      8170  TIP3      OH2            -6.2408622226       22.2993449838      -43.4120224710  TIP3      7970            0.0000000000
     48809      8170  TIP3      H1             -5.7612994934       22.0966033951      -42.5708028067  TIP3      7970            0.0000000000
     48810      8170  TIP3      H2             -5.7573520733       23.0725824878      -43.7477733122  TIP3      7970            0.0000000000
     48811      8171  TIP3      OH2           -17.2705186086       24.8348223246      -41.0894819022  TIP3      7971            0.0000000000
     48812      8171  TIP3      H1            -16.6551076988       24.2840951425      -40.5693618489  TIP3      7971            0.0000000000
     48813      8171  TIP3      H2            -17.1023678958       24.4861909060      -41.9828634287  TIP3      7971            0.0000000000
     48814      8172  TIP3      OH2           -12.4378789069       26.3461947424      -41.5139325996  TIP3      7972            0.0000000000
     48815      8172  TIP3      H1            -11.6128669684       25.9387217166      -41.1744035080  TIP3      7972            0.0000000000
     48816      8172  TIP3      H2            -12.6339025706       25.7180117637      -42.2310684810  TIP3      7972            0.0000000000
     48817      8173  TIP3      OH2            -1.5528000368       22.6968493290      -36.4393745866  TIP3      7973            0.0000000000
     48818      8173  TIP3      H1             -1.8765399561       23.5550069260      -36.8001021753  TIP3      7973            0.0000000000
     48819      8173  TIP3      H2             -1.4352221892       22.9472583623      -35.5094184782  TIP3      7973            0.0000000000
     48820      8174  TIP3      OH2           -14.6480816045       21.2290248141      -37.8071751932  TIP3      7974            0.0000000000
     48821      8174  TIP3      H1            -15.0861691538       21.7435655526      -38.5148868505  TIP3      7974            0.0000000000
     48822      8174  TIP3      H2            -15.3631082370       21.2618729330      -37.1415544776  TIP3      7974            0.0000000000
     48823      8175  TIP3      OH2            -8.0212800259       30.8024912754      -44.1854900478  TIP3      7975            0.0000000000
     48824      8175  TIP3      H1             -8.0515895539       30.7193831699      -45.1581685315  TIP3      7975            0.0000000000
     48825      8175  TIP3      H2             -8.2098708842       31.7469227572      -44.0829083087  TIP3      7975            0.0000000000
     48826      8176  TIP3      OH2           -12.6475704472       28.9797544661      -37.9459917117  TIP3      7976            0.0000000000
     48827      8176  TIP3      H1            -13.1860711404       29.7163228911      -37.5874658450  TIP3      7976            0.0000000000
     48828      8176  TIP3      H2            -11.9624570579       29.4623977346      -38.4491939757  TIP3      7976            0.0000000000
     48829      8177  TIP3      OH2            -4.6208272310       21.9362562934      -41.2424536814  TIP3      7977            0.0000000000
     48830      8177  TIP3      H1             -4.6636196970       21.1424239585      -40.6986113523  TIP3      7977            0.0000000000
     48831      8177  TIP3      H2             -3.7082074989       22.2216450797      -41.1050970040  TIP3      7977            0.0000000000
     48832      8178  TIP3      OH2           -15.3894665638       23.1488760287      -39.8547200061  TIP3      7978            0.0000000000
     48833      8178  TIP3      H1            -14.7596853562       23.8062008562      -39.4663140534  TIP3      7978            0.0000000000
     48834      8178  TIP3      H2            -14.8799033722       22.8070224911      -40.6282244953  TIP3      7978            0.0000000000
     48835      8179  TIP3      OH2           -13.9596029277       31.1555922178      -36.8000833068  TIP3      7979            0.0000000000
     48836      8179  TIP3      H1            -14.0653772015       32.0864941975      -37.0637252286  TIP3      7979            0.0000000000
     48837      8179  TIP3      H2            -14.8429657853       30.9686352305      -36.3981845512  TIP3      7979            0.0000000000
     48838      8180  TIP3      OH2           -18.1183875698       30.3749625912      -45.9697429318  TIP3      7980            0.0000000000
     48839      8180  TIP3      H1            -18.1424334398       30.9139573167      -46.7969301451  TIP3      7980            0.0000000000
     48840      8180  TIP3      H2            -18.0214677489       31.0724679516      -45.2857647319  TIP3      7980            0.0000000000
     48841      8181  TIP3      OH2            -4.4301984497       32.7083050608      -38.7313298516  TIP3      7981            0.0000000000
     48842      8181  TIP3      H1             -5.4019700772       32.6258053882      -38.6889628120  TIP3      7981            0.0000000000
     48843      8181  TIP3      H2             -4.3550702712       33.2599638924      -39.5198279491  TIP3      7981            0.0000000000
     48844      8182  TIP3      OH2            -4.5493599685       20.8146190921      -37.8968016998  TIP3      7982            0.0000000000
     48845      8182  TIP3      H1             -5.3408571214       21.2318108784      -38.3245210908  TIP3      7982            0.0000000000
     48846      8182  TIP3      H2             -3.8105552995       21.0954970255      -38.4651149249  TIP3      7982            0.0000000000
     48847      8183  TIP3      OH2           -11.4306842497       18.6589460939      -40.2528006170  TIP3      7983            0.0000000000
     48848      8183  TIP3      H1            -11.6977175484       17.7536866755      -40.4340707988  TIP3      7983            0.0000000000
     48849      8183  TIP3      H2            -12.3234242167       19.0780093218      -40.1072844176  TIP3      7983            0.0000000000
     48850      8184  TIP3      OH2            -5.7380429641       33.8777548377      -42.1778732635  TIP3      7984            0.0000000000
     48851      8184  TIP3      H1             -5.7116673917       33.1114458960      -42.7889142270  TIP3      7984            0.0000000000
     48852      8184  TIP3      H2             -5.0786553245       34.4402185177      -42.6507090872  TIP3      7984            0.0000000000
     48853      8185  TIP3      OH2            -4.8734787920       31.7770962560      -43.7641473472  TIP3      7985            0.0000000000
     48854      8185  TIP3      H1             -5.1957257870       31.3812920198      -44.5853808216  TIP3      7985            0.0000000000
     48855      8185  TIP3      H2             -4.9379281750       31.0137639378      -43.1554959624  TIP3      7985            0.0000000000
     48856      8186  TIP3      OH2            -3.4047816834       30.5413330353      -35.2823104327  TIP3      7986            0.0000000000
     48857      8186  TIP3      H1             -3.2406669068       29.8104137547      -35.9200638978  TIP3      7986            0.0000000000
     48858      8186  TIP3      H2             -3.2811091865       31.2973419666      -35.8858634729  TIP3      7986            0.0000000000
     48859      8187  TIP3      OH2            -8.7797197558       27.6647774288      -45.6852341820  TIP3      7987            0.0000000000
     48860      8187  TIP3      H1             -9.3727295887       28.3968635800      -45.9682845643  TIP3      7987            0.0000000000
     48861      8187  TIP3      H2             -7.9991859173       27.7406836727      -46.2770211615  TIP3      7987            0.0000000000
     48862      8188  TIP3      OH2            -8.3221511276       25.9514835364      -48.6150009785  TIP3      7988            0.0000000000
     48863      8188  TIP3      H1             -7.5630012695       26.3791983360      -48.1454075978  TIP3      7988            0.0000000000
     48864      8188  TIP3      H2             -7.8673714907       25.1487686774      -48.9764037109  TIP3      7988            0.0000000000
     48865      8189  TIP3      OH2            -1.3517094981       27.0054517933      -37.5098130536  TIP3      7989            0.0000000000
     48866      8189  TIP3      H1             -1.9464224094       27.7714420043      -37.3841495258  TIP3      7989            0.0000000000
     48867      8189  TIP3      H2             -0.7986222564       27.3663602423      -38.2345059178  TIP3      7989            0.0000000000
     48868      8190  TIP3      OH2            -5.1879706111       27.4800293230      -44.6080409046  TIP3      7990            0.0000000000
     48869      8190  TIP3      H1             -5.9021799205       27.8250526668      -44.0241863529  TIP3      7990            0.0000000000
     48870      8190  TIP3      H2             -4.5825900776       27.0555799201      -43.9529728471  TIP3      7990            0.0000000000
     48871      8191  TIP3      OH2            -5.1460086999       25.8260134067      -35.5625296249  TIP3      7991            0.0000000000
     48872      8191  TIP3      H1             -5.3408866366       26.6434588708      -35.0691931907  TIP3      7991            0.0000000000
     48873      8191  TIP3      H2             -5.7287689825       25.9464784399      -36.3363560150  TIP3      7991            0.0000000000
     48874      8192  TIP3      OH2           -13.7946354155       28.3328478282      -42.7946227601  TIP3      7992            0.0000000000
     48875      8192  TIP3      H1            -14.0239451467       27.9313623871      -43.6608543594  TIP3      7992            0.0000000000
     48876      8192  TIP3      H2            -13.2397198807       27.6358855803      -42.3885467009  TIP3      7992            0.0000000000
     48877      8193  TIP3      OH2           -12.4605887484       31.5501057237      -40.2490784188  TIP3      7993            0.0000000000
     48878      8193  TIP3      H1            -12.3324022616       31.4223777544      -41.2005559335  TIP3      7993            0.0000000000
     48879      8193  TIP3      H2            -11.6430387650       31.1698176273      -39.8582708930  TIP3      7993            0.0000000000
     48880      8194  TIP3      OH2           -13.7496241797       26.9450305800      -39.1160274434  TIP3      7994            0.0000000000
     48881      8194  TIP3      H1            -13.2989616507       26.8703233778      -39.9855706083  TIP3      7994            0.0000000000
     48882      8194  TIP3      H2            -13.2465443669       27.6746595688      -38.6859915524  TIP3      7994            0.0000000000
     48883      8195  TIP3      OH2            -7.1867057173       32.6449522005      -38.5182938595  TIP3      7995            0.0000000000
     48884      8195  TIP3      H1             -7.5367939840       33.3393562749      -37.9278959472  TIP3      7995            0.0000000000
     48885      8195  TIP3      H2             -7.4809497867       31.8288531954      -38.0624251108  TIP3      7995            0.0000000000
     48886      8196  TIP3      OH2           -12.4856591313       31.4717482777      -34.4916746436  TIP3      7996            0.0000000000
     48887      8196  TIP3      H1            -13.1217964254       32.1235957532      -34.1165480668  TIP3      7996            0.0000000000
     48888      8196  TIP3      H2            -12.8865419926       31.3164467849      -35.3769137347  TIP3      7996            0.0000000000
     48889      8197  TIP3      OH2            -6.4865864874       27.0977438116      -46.9780606414  TIP3      7997            0.0000000000
     48890      8197  TIP3      H1             -6.0579207376       27.1493606594      -46.0885606563  TIP3      7997            0.0000000000
     48891      8197  TIP3      H2             -5.8309583961       27.5892418073      -47.5460708631  TIP3      7997            0.0000000000
     48892      8198  TIP3      OH2           -15.4934716380       27.5399528660      -35.5551159119  TIP3      7998            0.0000000000
     48893      8198  TIP3      H1            -15.4105739223       28.4521714704      -35.2408484213  TIP3      7998            0.0000000000
     48894      8198  TIP3      H2            -16.0677827718       27.1939067410      -34.8463641330  TIP3      7998            0.0000000000
     48895      8199  TIP3      OH2            -8.6657281613       33.7703877098      -44.1687213294  TIP3      7999            0.0000000000
     48896      8199  TIP3      H1             -8.4139933789       33.8306769822      -43.2433836414  TIP3      7999            0.0000000000
     48897      8199  TIP3      H2             -9.4090203171       34.3843250102      -44.2206132402  TIP3      7999            0.0000000000
     48898      8200  TIP3      OH2           -14.3371030206       33.4051455518      -33.7845724462  TIP3      8000            0.0000000000
     48899      8200  TIP3      H1            -14.5001418109       33.5349231085      -34.7424897688  TIP3      8000            0.0000000000
     48900      8200  TIP3      H2            -15.2131128083       33.0988939206      -33.4566443049  TIP3      8000            0.0000000000
     48901      8201  TIP3      OH2            -2.4758498373       18.4684065564      -46.8062782267  TIP3      8001            0.0000000000
     48902      8201  TIP3      H1             -3.4247511744       18.5133986607      -46.5326341349  TIP3      8001            0.0000000000
     48903      8201  TIP3      H2             -2.3091619085       19.4032635200      -46.9853168707  TIP3      8001            0.0000000000
     48904      8202  TIP3      OH2           -14.8154204169       27.0899494760      -45.1371831895  TIP3      8002            0.0000000000
     48905      8202  TIP3      H1            -15.2689907047       27.8484313735      -45.5459120106  TIP3      8002            0.0000000000
     48906      8202  TIP3      H2            -15.2642208439       26.3465536113      -45.5607605460  TIP3      8002            0.0000000000
     48907      8203  TIP3      OH2            -1.4988984094       33.1335039008      -48.5400908815  TIP3      8003            0.0000000000
     48908      8203  TIP3      H1             -0.9730196049       33.9523599449      -48.6622636447  TIP3      8003            0.0000000000
     48909      8203  TIP3      H2             -0.8265963798       32.4188836633      -48.5602241030  TIP3      8003            0.0000000000
     48910      8204  TIP3      OH2           -18.4055398448       29.8375275658      -36.2922263840  TIP3      8004            0.0000000000
     48911      8204  TIP3      H1            -18.9257566621       29.8384739435      -37.1037457157  TIP3      8004            0.0000000000
     48912      8204  TIP3      H2            -18.0803724608       28.9018118505      -36.2602056589  TIP3      8004            0.0000000000
     48913      8205  TIP3      OH2           -18.6684416611       32.1941222020      -39.7354598356  TIP3      8005            0.0000000000
     48914      8205  TIP3      H1            -17.7078319210       32.0634556792      -39.7075099702  TIP3      8005            0.0000000000
     48915      8205  TIP3      H2            -18.8071991698       33.0007151453      -39.2215446664  TIP3      8005            0.0000000000
     48916      8206  TIP3      OH2            -0.8871298500       33.2322563501      -33.4807099854  TIP3      8006            0.0000000000
     48917      8206  TIP3      H1             -1.0723147970       32.2783825415      -33.5306979976  TIP3      8006            0.0000000000
     48918      8206  TIP3      H2             -1.7703633231       33.5416074677      -33.1745591055  TIP3      8006            0.0000000000
     48919      8207  TIP3      OH2            -9.8578572549       32.5336530430      -35.1173346337  TIP3      8007            0.0000000000
     48920      8207  TIP3      H1             -9.7636028482       33.3905723875      -34.6423954189  TIP3      8007            0.0000000000
     48921      8207  TIP3      H2            -10.7536056235       32.2300174037      -34.8566970420  TIP3      8007            0.0000000000
     48922      8208  TIP3      OH2            -8.9215016686       36.6759922517      -45.2109808642  TIP3      8008            0.0000000000
     48923      8208  TIP3      H1             -8.9061125491       36.6337907364      -46.1831159563  TIP3      8008            0.0000000000
     48924      8208  TIP3      H2             -9.2468947617       37.5663427993      -45.0269322915  TIP3      8008            0.0000000000
     48925      8209  TIP3      OH2           -15.5752909043       34.8344507440      -43.1955098061  TIP3      8009            0.0000000000
     48926      8209  TIP3      H1            -15.1806539794       34.9581440959      -42.3012066077  TIP3      8009            0.0000000000
     48927      8209  TIP3      H2            -16.2445661345       34.1577486500      -42.9727811088  TIP3      8009            0.0000000000
     48928      8210  TIP3      OH2            -6.3095434857       35.9206011344      -47.8164877408  TIP3      8010            0.0000000000
     48929      8210  TIP3      H1             -5.8446345137       35.2642659315      -48.3923743814  TIP3      8010            0.0000000000
     48930      8210  TIP3      H2             -6.2733046343       35.4464430638      -46.9515094384  TIP3      8010            0.0000000000
     48931      8211  TIP3      OH2            -6.6348036068       35.3198857327      -45.3106378520  TIP3      8011            0.0000000000
     48932      8211  TIP3      H1             -7.4761147832       35.6839712344      -44.9692215620  TIP3      8011            0.0000000000
     48933      8211  TIP3      H2             -6.5971198087       34.4681702003      -44.8545659674  TIP3      8011            0.0000000000
     48934      8212  TIP3      OH2            -3.8607262714       24.4723991488      -33.3808431734  TIP3      8012            0.0000000000
     48935      8212  TIP3      H1             -4.3181713943       24.9699117122      -34.0898340319  TIP3      8012            0.0000000000
     48936      8212  TIP3      H2             -3.8034194270       23.5665812453      -33.7715928720  TIP3      8012            0.0000000000
     48937      8213  TIP3      OH2           -16.2187022686       30.9225451398      -35.3796192280  TIP3      8013            0.0000000000
     48938      8213  TIP3      H1            -16.2603217789       30.5272867720      -34.4747766876  TIP3      8013            0.0000000000
     48939      8213  TIP3      H2            -17.1055246742       30.6709480989      -35.7276326375  TIP3      8013            0.0000000000
     48940      8214  TIP3      OH2           -13.7588403291       19.5926243721      -39.6984156428  TIP3      8014            0.0000000000
     48941      8214  TIP3      H1            -14.6789341902       19.4452764000      -39.9878617830  TIP3      8014            0.0000000000
     48942      8214  TIP3      H2            -13.8977867573       20.2047224990      -38.9482770372  TIP3      8014            0.0000000000
     48943      8215  TIP3      OH2            -8.8268884637       18.9826259757      -36.3285912546  TIP3      8015            0.0000000000
     48944      8215  TIP3      H1             -8.3840443572       18.7047790093      -35.4937055998  TIP3      8015            0.0000000000
     48945      8215  TIP3      H2             -9.7664027754       18.9484478213      -36.0578521664  TIP3      8015            0.0000000000
     48946      8216  TIP3      OH2            -6.2013441265       23.3063922871      -35.2114102424  TIP3      8016            0.0000000000
     48947      8216  TIP3      H1             -6.3285034121       23.0559070168      -34.2736439754  TIP3      8016            0.0000000000
     48948      8216  TIP3      H2             -5.6927200118       24.1437654634      -35.1604571530  TIP3      8016            0.0000000000
     48949      8217  TIP3      OH2            -4.8910052660       28.2380865834      -48.6442276852  TIP3      8017            0.0000000000
     48950      8217  TIP3      H1             -5.2657551341       28.2705835892      -49.5611838989  TIP3      8017            0.0000000000
     48951      8217  TIP3      H2             -3.9500900210       28.3881231432      -48.8781770918  TIP3      8017            0.0000000000
     48952      8218  TIP3      OH2            -9.5326219262       22.1798427760      -48.5845626067  TIP3      8018            0.0000000000
     48953      8218  TIP3      H1             -9.9429441209       21.7334887194      -47.8272195648  TIP3      8018            0.0000000000
     48954      8218  TIP3      H2             -9.8262305181       21.5908712717      -49.2847536191  TIP3      8018            0.0000000000
     48955      8219  TIP3      OH2           -13.6325652273       24.4650377956      -38.1993748493  TIP3      8019            0.0000000000
     48956      8219  TIP3      H1            -14.4281946384       24.4558585599      -37.6286917831  TIP3      8019            0.0000000000
     48957      8219  TIP3      H2            -13.6932245642       25.3797981711      -38.5595211674  TIP3      8019            0.0000000000
     48958      8220  TIP3      OH2           -13.6283936795       24.1362172422      -43.6617128183  TIP3      8020            0.0000000000
     48959      8220  TIP3      H1            -14.5829030222       24.3304410906      -43.7599521292  TIP3      8020            0.0000000000
     48960      8220  TIP3      H2            -13.3172060995       23.9765362148      -44.5858746695  TIP3      8020            0.0000000000
     48961      8221  TIP3      OH2            -7.8295943405       25.4204387013      -44.3121162186  TIP3      8021            0.0000000000
     48962      8221  TIP3      H1             -8.2006419477       26.2142803412      -44.7623966465  TIP3      8021            0.0000000000
     48963      8221  TIP3      H2             -7.3169193504       25.0367291816      -45.0456823212  TIP3      8021            0.0000000000
     48964      8222  TIP3      OH2            -9.1425880232       25.2747259574      -33.1907128648  TIP3      8022            0.0000000000
     48965      8222  TIP3      H1             -9.5748040464       24.5736633451      -32.6801937399  TIP3      8022            0.0000000000
     48966      8222  TIP3      H2             -8.3837651167       25.4853187865      -32.6141445916  TIP3      8022            0.0000000000
     48967      8223  TIP3      OH2            -7.0774371043       24.7051569650      -41.6086862835  TIP3      8023            0.0000000000
     48968      8223  TIP3      H1             -7.1356339287       25.5566154923      -42.0878087750  TIP3      8023            0.0000000000
     48969      8223  TIP3      H2             -7.1939088866       24.1147442508      -42.3741304101  TIP3      8023            0.0000000000
     48970      8224  TIP3      OH2           -15.9389533192       24.4650582888      -36.9160738192  TIP3      8024            0.0000000000
     48971      8224  TIP3      H1            -15.6926724008       24.7892291665      -36.0354766534  TIP3      8024            0.0000000000
     48972      8224  TIP3      H2            -16.2644453617       23.5584329712      -36.7319287818  TIP3      8024            0.0000000000
     48973      8225  TIP3      OH2           -12.7479836709       21.7616029173      -49.5868251641  TIP3      8025            0.0000000000
     48974      8225  TIP3      H1            -13.1063503784       21.7888716518      -48.6716861197  TIP3      8025            0.0000000000
     48975      8225  TIP3      H2            -13.2953028915       22.3988527953      -50.0744262467  TIP3      8025            0.0000000000
     48976      8226  TIP3      OH2           -19.2307466982       21.6979714998      -42.4208149824  TIP3      8026            0.0000000000
     48977      8226  TIP3      H1            -18.5970544093       21.8158411007      -41.6875308553  TIP3      8026            0.0000000000
     48978      8226  TIP3      H2            -18.7222361430       21.8206537800      -43.2250464764  TIP3      8026            0.0000000000
     48979      8227  TIP3      OH2           -18.0611083183       22.4742112538      -47.1698340962  TIP3      8027            0.0000000000
     48980      8227  TIP3      H1            -17.3033745034       22.9949640358      -47.5193140343  TIP3      8027            0.0000000000
     48981      8227  TIP3      H2            -18.6640858410       23.2199249188      -46.9462826783  TIP3      8027            0.0000000000
     48982      8228  TIP3      OH2            -8.0996615167       26.1497964568      -37.2992592252  TIP3      8028            0.0000000000
     48983      8228  TIP3      H1             -7.4427283065       25.5390624356      -37.7088965778  TIP3      8028            0.0000000000
     48984      8228  TIP3      H2             -8.6175151233       25.5772738350      -36.7040868474  TIP3      8028            0.0000000000
     48985      8229  TIP3      OH2           -10.7089536256       22.2832805939      -42.3459475585  TIP3      8029            0.0000000000
     48986      8229  TIP3      H1            -11.6660368548       22.2026474280      -42.1962668108  TIP3      8029            0.0000000000
     48987      8229  TIP3      H2            -10.3271091172       21.6850624086      -41.6692718178  TIP3      8029            0.0000000000
     48988      8230  TIP3      OH2           -16.3610065811       23.8845209619      -43.5050700900  TIP3      8030            0.0000000000
     48989      8230  TIP3      H1            -17.1672001876       24.1745533404      -43.9920546709  TIP3      8030            0.0000000000
     48990      8230  TIP3      H2            -16.2078737591       22.9766064817      -43.8002443744  TIP3      8030            0.0000000000
     48991      8231  TIP3      OH2           -12.3468050329       23.7891487891      -46.0089004651  TIP3      8031            0.0000000000
     48992      8231  TIP3      H1            -11.4587786956       24.1399045100      -45.8904647093  TIP3      8031            0.0000000000
     48993      8231  TIP3      H2            -12.8048145684       24.4577101336      -46.5684723384  TIP3      8031            0.0000000000
     48994      8232  TIP3      OH2            -6.7911821086       21.6010737390      -39.0892218278  TIP3      8032            0.0000000000
     48995      8232  TIP3      H1             -7.4308334216       21.2295066772      -38.4664842808  TIP3      8032            0.0000000000
     48996      8232  TIP3      H2             -7.1195647905       21.3195514798      -39.9593938431  TIP3      8032            0.0000000000
     48997      8233  TIP3      OH2           -13.9420402347       25.1003303559      -47.8387626512  TIP3      8033            0.0000000000
     48998      8233  TIP3      H1            -14.6767772877       24.7454890606      -48.3571898698  TIP3      8033            0.0000000000
     48999      8233  TIP3      H2            -13.3421385132       25.4249396432      -48.5335772896  TIP3      8033            0.0000000000
     49000      8234  TIP3      OH2            -4.1287393918       37.3554465143      -32.7971621328  TIP3      8034            0.0000000000
     49001      8234  TIP3      H1             -3.8484963649       37.4595844925      -33.7301129622  TIP3      8034            0.0000000000
     49002      8234  TIP3      H2             -3.2337308218       37.2435001313      -32.3904874251  TIP3      8034            0.0000000000
     49003      8235  TIP3      OH2           -16.0209719572       29.3162361825      -33.1016368639  TIP3      8035            0.0000000000
     49004      8235  TIP3      H1            -15.3240283335       29.6593740260      -32.5147386360  TIP3      8035            0.0000000000
     49005      8235  TIP3      H2            -16.7820636733       29.2571970525      -32.4863566144  TIP3      8035            0.0000000000
     49006      8236  TIP3      OH2           -10.1095968919       25.0990403419      -40.6139769009  TIP3      8036            0.0000000000
     49007      8236  TIP3      H1             -9.3647679731       24.7665347477      -41.1415534466  TIP3      8036            0.0000000000
     49008      8236  TIP3      H2            -10.1875774249       24.3897919702      -39.9667731115  TIP3      8036            0.0000000000
     49009      8237  TIP3      OH2           -15.2561156020       20.8485879361      -44.1139562425  TIP3      8037            0.0000000000
     49010      8237  TIP3      H1            -15.9078763288       20.3381849107      -43.5915736507  TIP3      8037            0.0000000000
     49011      8237  TIP3      H2            -14.8395255691       20.1132771857      -44.5797197504  TIP3      8037            0.0000000000
     49012      8238  TIP3      OH2           -11.4864162131       23.0315972509      -38.0842676993  TIP3      8038            0.0000000000
     49013      8238  TIP3      H1            -12.3064737140       23.5571147947      -38.2916545673  TIP3      8038            0.0000000000
     49014      8238  TIP3      H2            -10.8568426555       23.7238541551      -37.8496758153  TIP3      8038            0.0000000000
     49015      8239  TIP3      OH2           -10.5753074614       29.7261915024      -46.1109194430  TIP3      8039            0.0000000000
     49016      8239  TIP3      H1            -11.2846488549       29.1432288216      -46.4632611835  TIP3      8039            0.0000000000
     49017      8239  TIP3      H2            -10.9405831846       29.8974124668      -45.2118314818  TIP3      8039            0.0000000000
     49018      8240  TIP3      OH2            -3.2718356881       28.9512052035      -37.3398865406  TIP3      8040            0.0000000000
     49019      8240  TIP3      H1             -2.7649801114       29.4540156381      -38.0173483727  TIP3      8040            0.0000000000
     49020      8240  TIP3      H2             -4.1403077977       28.9276451532      -37.7699031853  TIP3      8040            0.0000000000
     49021      8241  TIP3      OH2            -6.9690639984       22.3612172850      -48.0087070969  TIP3      8041            0.0000000000
     49022      8241  TIP3      H1             -7.9420004023       22.4472632064      -48.1396506029  TIP3      8041            0.0000000000
     49023      8241  TIP3      H2             -6.7521559405       23.2508972150      -47.6549097979  TIP3      8041            0.0000000000
     49024      8242  TIP3      OH2            -9.5625092372       29.8390271686      -35.0319930663  TIP3      8042            0.0000000000
     49025      8242  TIP3      H1             -9.5568140486       29.5221184553      -34.1158361206  TIP3      8042            0.0000000000
     49026      8242  TIP3      H2             -9.5466095274       30.8042954802      -34.9137017046  TIP3      8042            0.0000000000
     49027      8243  TIP3      OH2            -6.1593696750       24.4625160266      -46.4480125455  TIP3      8043            0.0000000000
     49028      8243  TIP3      H1             -5.2964215708       24.2084137336      -46.0545496210  TIP3      8043            0.0000000000
     49029      8243  TIP3      H2             -5.9616201910       25.3381035948      -46.8269958042  TIP3      8043            0.0000000000
     49030      8244  TIP3      OH2           -15.3831166904       29.1269083819      -40.7255722739  TIP3      8044            0.0000000000
     49031      8244  TIP3      H1            -14.8380599667       29.0176824333      -41.5354338616  TIP3      8044            0.0000000000
     49032      8244  TIP3      H2            -15.1821365378       28.3285091493      -40.2175538566  TIP3      8044            0.0000000000
     49033      8245  TIP3      OH2            -8.3887231426       31.1530184480      -46.9209010201  TIP3      8045            0.0000000000
     49034      8245  TIP3      H1             -8.7923842567       32.0533752039      -46.9097868534  TIP3      8045            0.0000000000
     49035      8245  TIP3      H2             -9.1676809015       30.5677013248      -46.8218716818  TIP3      8045            0.0000000000
     49036      8246  TIP3      OH2           -18.4297274158       27.2693869134      -35.3609445272  TIP3      8046            0.0000000000
     49037      8246  TIP3      H1            -18.4367623364       26.7437962033      -34.5367458937  TIP3      8046            0.0000000000
     49038      8246  TIP3      H2            -19.0329373637       26.7389470982      -35.9152993911  TIP3      8046            0.0000000000
     49039      8247  TIP3      OH2           -11.6572675046       26.7764259632      -33.3933302427  TIP3      8047            0.0000000000
     49040      8247  TIP3      H1            -12.1822796233       26.1677080875      -33.9312387770  TIP3      8047            0.0000000000
     49041      8247  TIP3      H2            -10.7691914810       26.3763631651      -33.4169623410  TIP3      8047            0.0000000000
     49042      8248  TIP3      OH2            -6.6206525276       32.2315304548      -34.8486739661  TIP3      8048            0.0000000000
     49043      8248  TIP3      H1             -7.3550337984       32.3653349976      -35.4470104364  TIP3      8048            0.0000000000
     49044      8248  TIP3      H2             -6.9616328697       32.7187207281      -34.0678820230  TIP3      8048            0.0000000000
     49045      8249  TIP3      OH2            -1.1291075178       24.4164748138      -46.5521124760  TIP3      8049            0.0000000000
     49046      8249  TIP3      H1             -1.9009926326       24.2675984838      -47.1443025148  TIP3      8049            0.0000000000
     49047      8249  TIP3      H2             -1.0272500153       25.3803636446      -46.6730708032  TIP3      8049            0.0000000000
     49048      8250  TIP3      OH2            -1.0489406716       30.3556567295      -33.9406328015  TIP3      8050            0.0000000000
     49049      8250  TIP3      H1             -1.9784153466       30.4965441861      -34.2430570973  TIP3      8050            0.0000000000
     49050      8250  TIP3      H2             -0.5827822230       30.2889068176      -34.8030566620  TIP3      8050            0.0000000000
     49051      8251  TIP3      OH2            -2.8112819448       32.8801204556      -46.1865512367  TIP3      8051            0.0000000000
     49052      8251  TIP3      H1             -3.5761027000       32.2937140722      -46.1717356933  TIP3      8051            0.0000000000
     49053      8251  TIP3      H2             -2.4966532567       32.8134717519      -47.1140071777  TIP3      8051            0.0000000000
     49054      8252  TIP3      OH2            -5.7590505176       27.9176451778      -39.2627862715  TIP3      8052            0.0000000000
     49055      8252  TIP3      H1             -6.6720457474       27.8223603837      -39.5959047716  TIP3      8052            0.0000000000
     49056      8252  TIP3      H2             -5.2898842913       27.2701890871      -39.8330534958  TIP3      8052            0.0000000000
     49057      8253  TIP3      OH2           -13.2088677838       32.3313166204      -43.0482450445  TIP3      8053            0.0000000000
     49058      8253  TIP3      H1            -12.8936578560       33.2225640347      -43.2926037844  TIP3      8053            0.0000000000
     49059      8253  TIP3      H2            -14.0138188221       32.2862052566      -43.5849875112  TIP3      8053            0.0000000000
     49060      8254  TIP3      OH2           -17.1729604309       27.1625148199      -48.9861344814  TIP3      8054            0.0000000000
     49061      8254  TIP3      H1            -16.6445469200       27.7120247827      -48.3740008565  TIP3      8054            0.0000000000
     49062      8254  TIP3      H2            -18.0431730293       27.1883496611      -48.5471452176  TIP3      8054            0.0000000000
     49063      8255  TIP3      OH2           -11.7149935224       30.0987125789      -43.6445278449  TIP3      8055            0.0000000000
     49064      8255  TIP3      H1            -12.1675267154       30.9558748244      -43.4841170286  TIP3      8055            0.0000000000
     49065      8255  TIP3      H2            -12.2506323428       29.5042561321      -43.0928400063  TIP3      8055            0.0000000000
     49066      8256  TIP3      OH2           -11.2587019104       34.1689453617      -36.8142428288  TIP3      8056            0.0000000000
     49067      8256  TIP3      H1            -10.7832395001       35.0024215441      -37.0009363128  TIP3      8056            0.0000000000
     49068      8256  TIP3      H2            -10.5492361053       33.6250577387      -36.4076288415  TIP3      8056            0.0000000000
     49069      8257  TIP3      OH2           -12.9976391404       34.8373188674      -44.1340785954  TIP3      8057            0.0000000000
     49070      8257  TIP3      H1            -13.9508957568       34.9934132898      -43.9233960117  TIP3      8057            0.0000000000
     49071      8257  TIP3      H2            -12.5598838663       35.6271233079      -43.7396031562  TIP3      8057            0.0000000000
     49072      8258  TIP3      OH2            -8.1041538378       30.1358262549      -37.5224647580  TIP3      8058            0.0000000000
     49073      8258  TIP3      H1             -8.5992580557       29.8987853928      -36.7044154410  TIP3      8058            0.0000000000
     49074      8258  TIP3      H2             -7.6403304541       29.3023303778      -37.7220014706  TIP3      8058            0.0000000000
     49075      8259  TIP3      OH2            -5.3499502507       31.3588543282      -48.5144369368  TIP3      8059            0.0000000000
     49076      8259  TIP3      H1             -5.1904074744       30.8667768577      -47.6800029984  TIP3      8059            0.0000000000
     49077      8259  TIP3      H2             -6.3199933352       31.3335751744      -48.5140469696  TIP3      8059            0.0000000000
     49078      8260  TIP3      OH2            -5.0323288364       34.8179444232      -35.0136115913  TIP3      8060            0.0000000000
     49079      8260  TIP3      H1             -5.8249857155       34.2858948814      -35.2534339846  TIP3      8060            0.0000000000
     49080      8260  TIP3      H2             -4.9457620051       35.4284098298      -35.7661418746  TIP3      8060            0.0000000000
     49081      8261  TIP3      OH2            -0.5439347350       35.6437757350      -48.6264159714  TIP3      8061            0.0000000000
     49082      8261  TIP3      H1              0.1092769308       36.3263592376      -48.3994704262  TIP3      8061            0.0000000000
     49083      8261  TIP3      H2             -1.3653114048       36.0427178242      -48.2542827988  TIP3      8061            0.0000000000
     49084      8262  TIP3      OH2           -16.7791572753       21.7983179249      -35.9027269480  TIP3      8062            0.0000000000
     49085      8262  TIP3      H1            -17.3516230903       22.2992373243      -35.2788433705  TIP3      8062            0.0000000000
     49086      8262  TIP3      H2            -16.6315647167       21.0310558065      -35.3284593894  TIP3      8062            0.0000000000
     49087      8263  TIP3      OH2            -4.6018906107       29.9518168541      -46.3944828375  TIP3      8063            0.0000000000
     49088      8263  TIP3      H1             -4.7258989016       28.9963562777      -46.2926782297  TIP3      8063            0.0000000000
     49089      8263  TIP3      H2             -3.6266313243       29.9818372670      -46.4249536468  TIP3      8063            0.0000000000
     49090      8264  TIP3      OH2           -17.0736724755       33.6309612326      -37.1761508522  TIP3      8064            0.0000000000
     49091      8264  TIP3      H1            -16.5806300844       32.8022530910      -37.2058184146  TIP3      8064            0.0000000000
     49092      8264  TIP3      H2            -16.5331812903       34.1286172530      -36.5438044531  TIP3      8064            0.0000000000
     49093      8265  TIP3      OH2           -12.6938282255       31.8525731833      -47.5345225581  TIP3      8065            0.0000000000
     49094      8265  TIP3      H1            -11.9145491431       31.3994623724      -47.1836062571  TIP3      8065            0.0000000000
     49095      8265  TIP3      H2            -12.5534635783       32.7759688069      -47.2213024770  TIP3      8065            0.0000000000
     49096      8266  TIP3      OH2           -16.0942185815       28.9167924388      -47.0588603351  TIP3      8066            0.0000000000
     49097      8266  TIP3      H1            -16.8249682326       29.4028361231      -46.6137672241  TIP3      8066            0.0000000000
     49098      8266  TIP3      H2            -15.5773656343       29.6661646375      -47.4248844476  TIP3      8066            0.0000000000
     49099      8267  TIP3      OH2            -8.2276679349       21.7619562627      -36.4590601589  TIP3      8067            0.0000000000
     49100      8267  TIP3      H1             -7.3225542301       21.9706992497      -36.1440253800  TIP3      8067            0.0000000000
     49101      8267  TIP3      H2             -8.2894577959       20.7945836635      -36.3548553908  TIP3      8067            0.0000000000
     49102      8268  TIP3      OH2            -7.0698808619       20.7988524416      -45.4421862806  TIP3      8068            0.0000000000
     49103      8268  TIP3      H1             -7.0181686561       21.5744651852      -46.0322553372  TIP3      8068            0.0000000000
     49104      8268  TIP3      H2             -6.7297588735       21.1910269846      -44.6034110809  TIP3      8068            0.0000000000
     49105      8269  TIP3      OH2            -9.4785126912       33.6191481527      -47.1418366384  TIP3      8069            0.0000000000
     49106      8269  TIP3      H1            -10.2560200677       33.7883459006      -46.5862457336  TIP3      8069            0.0000000000
     49107      8269  TIP3      H2             -9.2995047212       34.5150898288      -47.4741835850  TIP3      8069            0.0000000000
     49108      8270  TIP3      OH2            -9.7286108966       22.9477578845      -44.8639769722  TIP3      8070            0.0000000000
     49109      8270  TIP3      H1             -9.2752763422       23.8053928319      -44.7962398266  TIP3      8070            0.0000000000
     49110      8270  TIP3      H2            -10.1621891119       22.8614007889      -43.9881217095  TIP3      8070            0.0000000000
     49111      8271  TIP3      OH2            -9.2529833076       24.2648941943      -35.7268121709  TIP3      8071            0.0000000000
     49112      8271  TIP3      H1             -9.0579113494       24.7478569570      -34.8906242652  TIP3      8071            0.0000000000
     49113      8271  TIP3      H2             -8.4813835611       23.6586659100      -35.8215484490  TIP3      8071            0.0000000000
     49114      8272  TIP3      OH2            -9.3704148691       19.9405779438      -44.1844755760  TIP3      8072            0.0000000000
     49115      8272  TIP3      H1             -9.6913318405       20.6593514759      -43.6099884759  TIP3      8072            0.0000000000
     49116      8272  TIP3      H2             -8.5617617926       20.3825061921      -44.5606485565  TIP3      8072            0.0000000000
     49117      8273  TIP3      OH2           -12.3871054773       34.4724083162      -46.7885316172  TIP3      8073            0.0000000000
     49118      8273  TIP3      H1            -12.1884982449       35.3180060241      -47.2464224270  TIP3      8073            0.0000000000
     49119      8273  TIP3      H2            -12.7718045576       34.7755632798      -45.9446791941  TIP3      8073            0.0000000000
     49120      8274  TIP3      OH2           -13.5582352213       21.4797143407      -47.0141317923  TIP3      8074            0.0000000000
     49121      8274  TIP3      H1            -13.5458468191       22.3031887370      -46.4890244410  TIP3      8074            0.0000000000
     49122      8274  TIP3      H2            -12.7389137511       21.0592598628      -46.7125529714  TIP3      8074            0.0000000000
     49123      8275  TIP3      OH2            -3.7095854457       22.1521394747      -34.7978867036  TIP3      8075            0.0000000000
     49124      8275  TIP3      H1             -4.6393986528       22.0605768397      -35.0832766857  TIP3      8075            0.0000000000
     49125      8275  TIP3      H2             -3.2253518658       22.1149197661      -35.6486971273  TIP3      8075            0.0000000000
     49126      8276  TIP3      OH2            -4.6714818438       25.7967626212      -40.7495765666  TIP3      8076            0.0000000000
     49127      8276  TIP3      H1             -5.4466219575       25.2154161466      -40.8498002078  TIP3      8076            0.0000000000
     49128      8276  TIP3      H2             -4.0174552518       25.2141306934      -40.2974586467  TIP3      8076            0.0000000000
     49129      8277  TIP3      OH2           -15.4320776601       31.4629565902      -48.1527595879  TIP3      8077            0.0000000000
     49130      8277  TIP3      H1            -14.6908078291       31.9959127420      -47.8137638116  TIP3      8077            0.0000000000
     49131      8277  TIP3      H2            -15.1398439715       31.3221352916      -49.0719227523  TIP3      8077            0.0000000000
     49132      8278  TIP3      OH2           -16.9322273722       24.3771551572      -48.6670031086  TIP3      8078            0.0000000000
     49133      8278  TIP3      H1            -16.8529399234       25.3450753685      -48.7172750369  TIP3      8078            0.0000000000
     49134      8278  TIP3      H2            -17.6326747042       24.1953686559      -49.3240347604  TIP3      8078            0.0000000000
     49135      8279  TIP3      OH2            -3.4875524129       35.7844637993      -38.8167737488  TIP3      8079            0.0000000000
     49136      8279  TIP3      H1             -3.6565993759       36.0215578135      -39.7580180793  TIP3      8079            0.0000000000
     49137      8279  TIP3      H2             -2.5163216542       35.6412523415      -38.9010776253  TIP3      8079            0.0000000000
     49138      8280  TIP3      OH2           -16.3852176369       19.1360491773      -40.0449875441  TIP3      8080            0.0000000000
     49139      8280  TIP3      H1            -16.4413392861       19.0657219965      -41.0202045338  TIP3      8080            0.0000000000
     49140      8280  TIP3      H2            -16.6758208129       18.2392804123      -39.7707788832  TIP3      8080            0.0000000000
     49141      8281  TIP3      OH2           -17.5885012985       32.7066883428      -44.3921320429  TIP3      8081            0.0000000000
     49142      8281  TIP3      H1            -18.4020669518       33.2214917767      -44.3997480773  TIP3      8081            0.0000000000
     49143      8281  TIP3      H2            -17.1209884915       33.2192832502      -45.0650308060  TIP3      8081            0.0000000000
     49144      8282  TIP3      OH2           -18.0988681470       35.8983721328      -32.7336203849  TIP3      8082            0.0000000000
     49145      8282  TIP3      H1            -17.2248689237       35.8435834254      -32.3182498122  TIP3      8082            0.0000000000
     49146      8282  TIP3      H2            -18.3714072401       34.9668849843      -32.7370065565  TIP3      8082            0.0000000000
     49147      8283  TIP3      OH2           -13.2517379095       34.2051458890      -31.3180930761  TIP3      8083            0.0000000000
     49148      8283  TIP3      H1            -12.3014641586       34.2915646815      -31.3880503668  TIP3      8083            0.0000000000
     49149      8283  TIP3      H2            -13.5173927906       34.0305374170      -32.2436127055  TIP3      8083            0.0000000000
     49150      8284  TIP3      OH2            -9.3026458539       33.6168422823       49.4849574056  TIP3      8084            0.0000000000
     49151      8284  TIP3      H1            -10.1300566176       33.3099278694       49.8749486396  TIP3      8084            0.0000000000
     49152      8284  TIP3      H2             -8.6375000993       33.3613244675       50.1370484474  TIP3      8084            0.0000000000
     49153      8285  TIP3      OH2            -7.1477521125       33.2917341468      -32.3955445199  TIP3      8085            0.0000000000
     49154      8285  TIP3      H1             -7.4576886406       32.3786757923      -32.1516229956  TIP3      8085            0.0000000000
     49155      8285  TIP3      H2             -6.3791673907       33.3893771917      -31.8012127064  TIP3      8085            0.0000000000
     49156      8286  TIP3      OH2            -5.2930164204       33.9214599690      -49.1794851769  TIP3      8086            0.0000000000
     49157      8286  TIP3      H1             -4.9090284306       33.0499800566      -48.9483421204  TIP3      8086            0.0000000000
     49158      8286  TIP3      H2             -4.6228907623       34.3676841773      -49.7445396653  TIP3      8086            0.0000000000
     49159      8287  TIP3      OH2           -18.5077218427       29.5486671642      -31.8826334786  TIP3      8087            0.0000000000
     49160      8287  TIP3      H1            -18.9928428578       28.7217379899      -31.7062342066  TIP3      8087            0.0000000000
     49161      8287  TIP3      H2            -19.0091318040       29.8819385091      -32.6605075574  TIP3      8087            0.0000000000
     49162      8288  TIP3      OH2           -13.2624164822       29.0724131165      -49.2316374268  TIP3      8088            0.0000000000
     49163      8288  TIP3      H1            -13.2862782472       28.6634490414      -48.3380896110  TIP3      8088            0.0000000000
     49164      8288  TIP3      H2            -12.3928483680       29.5030324345      -49.1486714389  TIP3      8088            0.0000000000
     49165      8289  TIP3      OH2           -11.6461187360       29.5025169055      -32.8840995961  TIP3      8089            0.0000000000
     49166      8289  TIP3      H1            -11.9128533875       30.0354385649      -33.6679334774  TIP3      8089            0.0000000000
     49167      8289  TIP3      H2            -11.7201433091       28.5628122545      -33.1897160508  TIP3      8089            0.0000000000
     49168      8290  TIP3      OH2            -5.9721286557       29.3347314672      -35.0207908613  TIP3      8090            0.0000000000
     49169      8290  TIP3      H1             -5.1632412916       29.9017389744      -35.0238395909  TIP3      8090            0.0000000000
     49170      8290  TIP3      H2             -6.6211755849       30.0568756549      -34.9864082024  TIP3      8090            0.0000000000
     49171      8291  TIP3      OH2           -17.1733782230       26.4371071128      -32.3307179379  TIP3      8091            0.0000000000
     49172      8291  TIP3      H1            -16.7360136527       25.6092577382      -32.0971449322  TIP3      8091            0.0000000000
     49173      8291  TIP3      H2            -16.8352771274       27.0467211211      -31.6477483072  TIP3      8091            0.0000000000
     49174      8292  TIP3      OH2           -12.4460890407       27.8763997002      -47.0168169149  TIP3      8092            0.0000000000
     49175      8292  TIP3      H1            -13.2263317741       27.3739041736      -46.7023133378  TIP3      8092            0.0000000000
     49176      8292  TIP3      H2            -12.0735925654       27.2845261740      -47.7059735340  TIP3      8092            0.0000000000
     49177      8293  TIP3      OH2           -13.6283410860       25.6666549852      -35.4627400459  TIP3      8093            0.0000000000
     49178      8293  TIP3      H1            -14.2293207654       26.4409870905      -35.5904150176  TIP3      8093            0.0000000000
     49179      8293  TIP3      H2            -12.8492910255       25.9729990679      -35.9630525877  TIP3      8093            0.0000000000
     49180      8294  TIP3      OH2           -11.2513000166       26.2712265311      -48.9487338898  TIP3      8094            0.0000000000
     49181      8294  TIP3      H1            -11.1188727476       25.8790104656      -49.8250845088  TIP3      8094            0.0000000000
     49182      8294  TIP3      H2            -10.3372933095       26.2251736312      -48.5916329991  TIP3      8094            0.0000000000
     49183      8295  TIP3      OH2            -8.1702047017       28.2862447278      -31.8192396595  TIP3      8095            0.0000000000
     49184      8295  TIP3      H1             -7.5037297554       27.9069007522      -32.4114876307  TIP3      8095            0.0000000000
     49185      8295  TIP3      H2             -8.3328723834       27.5375793715      -31.1984784335  TIP3      8095            0.0000000000
     49186      8296  TIP3      OH2            -2.5091573505       28.1308698772       50.1664823274  TIP3      8096            0.0000000000
     49187      8296  TIP3      H1             -1.8563113974       27.7830328819       49.5505191833  TIP3      8096            0.0000000000
     49188      8296  TIP3      H2             -2.3080912846       29.0879233669       50.0523170293  TIP3      8096            0.0000000000
     49189      8297  TIP3      OH2           -12.6573188323       23.2674962816      -34.6125457496  TIP3      8097            0.0000000000
     49190      8297  TIP3      H1            -12.8693586852       22.5789951364      -35.2808291167  TIP3      8097            0.0000000000
     49191      8297  TIP3      H2            -13.0925892146       24.0547997892      -35.0059843113  TIP3      8097            0.0000000000
     49192      8298  TIP3      OH2           -12.3268688963       21.3051480436      -36.3669033782  TIP3      8098            0.0000000000
     49193      8298  TIP3      H1            -11.9306886296       21.7975198530      -37.1313423002  TIP3      8098            0.0000000000
     49194      8298  TIP3      H2            -13.2295257533       21.1583896597      -36.7355754084  TIP3      8098            0.0000000000
     49195      8299  TIP3      OH2           -11.3213048798       27.0761601568      -36.5049238210  TIP3      8099            0.0000000000
     49196      8299  TIP3      H1            -10.4968739891       27.4910699172      -36.7823554457  TIP3      8099            0.0000000000
     49197      8299  TIP3      H2            -11.9443323826       27.7953990746      -36.7392603360  TIP3      8099            0.0000000000
     49198      8300  TIP3      OH2            -6.8049399575       24.4937488723      -31.5996525016  TIP3      8100            0.0000000000
     49199      8300  TIP3      H1             -6.4240806323       23.6121008028      -31.5000345387  TIP3      8100            0.0000000000
     49200      8300  TIP3      H2             -6.0919891754       25.0430668687      -31.2529684553  TIP3      8100            0.0000000000
     49201      8301  TIP3      OH2            -5.1839827285       27.6766882280      -33.0704936379  TIP3      8101            0.0000000000
     49202      8301  TIP3      H1             -5.4853877945       28.2952256960      -33.7734700560  TIP3      8101            0.0000000000
     49203      8301  TIP3      H2             -4.2143249358       27.7017321313      -33.2207233246  TIP3      8101            0.0000000000
     49204      8302  TIP3      OH2           -14.3511504116       24.2206802064      -32.1856083086  TIP3      8102            0.0000000000
     49205      8302  TIP3      H1            -15.2475738181       23.8240946108      -32.1308041397  TIP3      8102            0.0000000000
     49206      8302  TIP3      H2            -14.0194831087       23.8241057648      -33.0006184865  TIP3      8102            0.0000000000
     49207      8303  TIP3      OH2           -11.6197546940       18.7833406722      -36.3582744020  TIP3      8103            0.0000000000
     49208      8303  TIP3      H1            -11.9797596843       19.6908396302      -36.2517069332  TIP3      8103            0.0000000000
     49209      8303  TIP3      H2            -12.3730871422       18.3483829300      -36.7918662132  TIP3      8103            0.0000000000
     49210      8304  TIP3      OH2           -10.4643742399       22.9043745920      -32.0064318581  TIP3      8104            0.0000000000
     49211      8304  TIP3      H1             -9.8865398103       22.5408872809      -31.2876943592  TIP3      8104            0.0000000000
     49212      8304  TIP3      H2            -11.3330372539       22.7399270264      -31.5796202153  TIP3      8104            0.0000000000
     49213      8305  TIP3      OH2            -7.9645450516       22.3598507007      -33.2165285650  TIP3      8105            0.0000000000
     49214      8305  TIP3      H1             -8.1666629369       22.9513880363      -32.4768382351  TIP3      8105            0.0000000000
     49215      8305  TIP3      H2             -7.4947808400       21.6535062975      -32.7085482894  TIP3      8105            0.0000000000
     49216      8306  TIP3      OH2            -6.3965551431       20.9238079225      -31.6415208472  TIP3      8106            0.0000000000
     49217      8306  TIP3      H1             -6.2896432410       19.9440777266      -31.5871856475  TIP3      8106            0.0000000000
     49218      8306  TIP3      H2             -6.4097533298       21.2101251611      -30.7051655516  TIP3      8106            0.0000000000
     49219      8307  TIP3      OH2           -16.4470520639       22.4804023549      -32.3236013595  TIP3      8107            0.0000000000
     49220      8307  TIP3      H1            -16.6378326058       21.6385267087      -32.7787295698  TIP3      8107            0.0000000000
     49221      8307  TIP3      H2            -16.7650550394       22.2749048644      -31.4169450540  TIP3      8107            0.0000000000
     49222      8308  TIP3      OH2           -11.6781288340       18.6005698510      -33.6037434351  TIP3      8108            0.0000000000
     49223      8308  TIP3      H1            -10.9302378514       17.9815922218      -33.5098225225  TIP3      8108            0.0000000000
     49224      8308  TIP3      H2            -11.8420806221       18.5017338125      -34.5668121477  TIP3      8108            0.0000000000
     49225      8309  TIP3      OH2           -11.4171768963       19.8120977868      -31.1169187741  TIP3      8109            0.0000000000
     49226      8309  TIP3      H1            -11.5992221762       19.2973257044      -31.9347488740  TIP3      8109            0.0000000000
     49227      8309  TIP3      H2            -12.0177779564       20.5803803285      -31.2343860308  TIP3      8109            0.0000000000
     49228      8310  TIP3      OH2           -11.6610771943       36.7185722491      -48.2827019826  TIP3      8110            0.0000000000
     49229      8310  TIP3      H1            -10.7650962282       36.8332103710      -47.9228771894  TIP3      8110            0.0000000000
     49230      8310  TIP3      H2            -11.4895558729       36.7991157884      -49.2555088932  TIP3      8110            0.0000000000
     49231      8311  TIP3      OH2           -18.1185861198       31.4196063649      -48.4708075806  TIP3      8111            0.0000000000
     49232      8311  TIP3      H1            -17.1430196949       31.4523442716      -48.3478640066  TIP3      8111            0.0000000000
     49233      8311  TIP3      H2            -18.1907729686       31.1625998860      -49.4015311455  TIP3      8111            0.0000000000
     49234      8312  TIP3      OH2           -19.3724939226       36.6032009640      -43.7393920734  TIP3      8112            0.0000000000
     49235      8312  TIP3      H1            -20.1715113022       36.1791153070      -44.1154561087  TIP3      8112            0.0000000000
     49236      8312  TIP3      H2            -19.2004730132       35.9660964208      -43.0151743693  TIP3      8112            0.0000000000
     49237      8313  TIP3      OH2           -18.5319786604       34.7701502965      -41.7794960429  TIP3      8113            0.0000000000
     49238      8313  TIP3      H1            -19.2270992803       34.1645090236      -41.4678572909  TIP3      8113            0.0000000000
     49239      8313  TIP3      H2            -17.9046416634       34.7881621339      -41.0217062842  TIP3      8113            0.0000000000
     49240      8314  TIP3      OH2            -0.8078702526       35.7527878520      -39.1695239070  TIP3      8114            0.0000000000
     49241      8314  TIP3      H1             -0.6755225320       36.1020034716      -38.2584770178  TIP3      8114            0.0000000000
     49242      8314  TIP3      H2             -0.3619011914       36.4557634341      -39.6567960787  TIP3      8114            0.0000000000
     49243      8315  TIP3      OH2            -1.4912519698       35.0829864198      -35.7791147929  TIP3      8115            0.0000000000
     49244      8315  TIP3      H1             -1.7280450350       34.3177245345      -36.3452370575  TIP3      8115            0.0000000000
     49245      8315  TIP3      H2             -1.0259164920       34.6170526511      -35.0646992046  TIP3      8115            0.0000000000
     49246      8316  TIP3      OH2            -2.9401057990       30.9229991503      -31.1025717535  TIP3      8116            0.0000000000
     49247      8316  TIP3      H1             -3.8175418242       30.9793596538      -30.6689173506  TIP3      8116            0.0000000000
     49248      8316  TIP3      H2             -2.5570389334       31.8061013225      -30.8960949619  TIP3      8116            0.0000000000
     49249      8317  TIP3      OH2            -1.9988693634       29.4441107948      -46.1503929413  TIP3      8117            0.0000000000
     49250      8317  TIP3      H1             -1.1177966721       29.8428109955      -45.9550325687  TIP3      8117            0.0000000000
     49251      8317  TIP3      H2             -2.1493392424       28.9062912028      -45.3536653790  TIP3      8117            0.0000000000
     49252      8318  TIP3      OH2            -1.4365799754       27.5124638128      -43.8519638816  TIP3      8118            0.0000000000
     49253      8318  TIP3      H1             -2.2415837194       27.0048020638      -43.6004621987  TIP3      8118            0.0000000000
     49254      8318  TIP3      H2             -0.9639941557       27.5777397419      -42.9909556091  TIP3      8118            0.0000000000
     49255      8319  TIP3      OH2            -1.7034040334       30.0715132032      -39.1908617039  TIP3      8119            0.0000000000
     49256      8319  TIP3      H1             -1.0950304015       29.3269971185      -39.4006682031  TIP3      8119            0.0000000000
     49257      8319  TIP3      H2             -1.2181296865       30.8154487709      -39.5994968515  TIP3      8119            0.0000000000
     49258      8320  TIP3      OH2            -2.9660764075       32.8856802148      -36.5863260865  TIP3      8120            0.0000000000
     49259      8320  TIP3      H1             -3.5510568937       33.4683730472      -36.0803878267  TIP3      8120            0.0000000000
     49260      8320  TIP3      H2             -3.4835215649       32.7652232527      -37.4238623099  TIP3      8120            0.0000000000
     49261      8321  TIP3      OH2            -0.8915741767       27.4129667224      -47.7195361831  TIP3      8121            0.0000000000
     49262      8321  TIP3      H1             -1.5267263540       27.6802878136      -48.4207122244  TIP3      8121            0.0000000000
     49263      8321  TIP3      H2             -0.9934588320       28.1653048135      -47.1004347521  TIP3      8121            0.0000000000
     49264      8322  TIP3      OH2            -3.0950263773       24.2086725072      -48.4440043452  TIP3      8122            0.0000000000
     49265      8322  TIP3      H1             -3.4006190569       24.8814300344      -49.0724485379  TIP3      8122            0.0000000000
     49266      8322  TIP3      H2             -2.4597167537       23.7452804559      -49.0126544660  TIP3      8122            0.0000000000
     49267      8323  TIP3      OH2            -3.4514277203       25.9811850497      -43.1196361560  TIP3      8123            0.0000000000
     49268      8323  TIP3      H1             -3.5929519998       25.0546067009      -43.3338135114  TIP3      8123            0.0000000000
     49269      8323  TIP3      H2             -3.7288133341       26.0100725675      -42.1752546849  TIP3      8123            0.0000000000
     49270      8324  TIP3      OH2           -18.5829152990       28.1855592448      -39.1591475198  TIP3      8124            0.0000000000
     49271      8324  TIP3      H1            -18.5676324612       27.8893557298      -40.1040002739  TIP3      8124            0.0000000000
     49272      8324  TIP3      H2            -17.7199304897       27.8151226621      -38.8617718235  TIP3      8124            0.0000000000
     49273      8325  TIP3      OH2            -2.4019976120       27.9000842448      -33.6168250390  TIP3      8125            0.0000000000
     49274      8325  TIP3      H1             -1.9287423642       27.0398141004      -33.5641915070  TIP3      8125            0.0000000000
     49275      8325  TIP3      H2             -1.7099621085       28.5643387975      -33.8227841743  TIP3      8125            0.0000000000
     49276      8326  TIP3      OH2            -1.3937545656       25.3177312349      -33.3589702838  TIP3      8126            0.0000000000
     49277      8326  TIP3      H1             -2.3202637401       24.9812795947      -33.3430717123  TIP3      8126            0.0000000000
     49278      8326  TIP3      H2             -0.8382246885       24.5124699830      -33.2074686576  TIP3      8126            0.0000000000
     49279      8327  TIP3      OH2            -3.3544227324       21.8578225161      -50.1788160103  TIP3      8127            0.0000000000
     49280      8327  TIP3      H1             -2.7948413088       21.4581009746      -49.4845197644  TIP3      8127            0.0000000000
     49281      8327  TIP3      H2             -4.2443132602       21.6779829847      -49.8513850622  TIP3      8127            0.0000000000
     49282      8328  TIP3      OH2            -3.9260188565       23.6561638986      -45.0592335325  TIP3      8128            0.0000000000
     49283      8328  TIP3      H1             -3.7923272370       22.7275859708      -44.7638689979  TIP3      8128            0.0000000000
     49284      8328  TIP3      H2             -3.0234229908       23.8276232507      -45.3719425928  TIP3      8128            0.0000000000
     49285      8329  TIP3      OH2            -2.8971566542       24.1313706554      -39.5146831710  TIP3      8129            0.0000000000
     49286      8329  TIP3      H1             -1.9181882987       24.2353676982      -39.3696068920  TIP3      8129            0.0000000000
     49287      8329  TIP3      H2             -3.2030534571       24.1759575993      -38.5919614151  TIP3      8129            0.0000000000
     49288      8330  TIP3      OH2            -3.0551514189       24.7903480536      -36.8825241622  TIP3      8130            0.0000000000
     49289      8330  TIP3      H1             -3.8737609575       25.0828678832      -36.4305688987  TIP3      8130            0.0000000000
     49290      8330  TIP3      H2             -2.5717983482       25.6366470642      -36.9733772026  TIP3      8130            0.0000000000
     49291      8331  TIP3      OH2           -18.6151696592       22.6949748788      -34.0484427165  TIP3      8131            0.0000000000
     49292      8331  TIP3      H1            -18.0497201445       23.0625966680      -33.3340556845  TIP3      8131            0.0000000000
     49293      8331  TIP3      H2            -19.3036826332       22.3129614456      -33.4697822678  TIP3      8131            0.0000000000
     49294      8332  TIP3      OH2            -0.7689779320       19.3263111350      -31.5935698021  TIP3      8132            0.0000000000
     49295      8332  TIP3      H1             -0.4448818673       18.5358921721      -32.0620082894  TIP3      8132            0.0000000000
     49296      8332  TIP3      H2             -0.8068062690       19.9734412790      -32.3397146469  TIP3      8132            0.0000000000
     49297      8333  TIP3      OH2            -3.0233090182       21.0642584176      -44.6915090522  TIP3      8133            0.0000000000
     49298      8333  TIP3      H1             -2.6942851515       20.5611869857      -43.9191583985  TIP3      8133            0.0000000000
     49299      8333  TIP3      H2             -3.6150658676       20.4025835381      -45.0936871685  TIP3      8133            0.0000000000
     49300      8334  TIP3      OH2           -17.6066273126       21.5636990355      -39.9710577029  TIP3      8134            0.0000000000
     49301      8334  TIP3      H1            -17.2891757857       20.6395886235      -39.9003941356  TIP3      8134            0.0000000000
     49302      8334  TIP3      H2            -16.7912383822       22.0935411594      -39.9864211738  TIP3      8134            0.0000000000
     49303      8335  TIP3      OH2           -19.2451421670       24.7613798124      -39.3571245247  TIP3      8135            0.0000000000
     49304      8335  TIP3      H1            -18.6625058272       24.6791881018      -40.1362057379  TIP3      8135            0.0000000000
     49305      8335  TIP3      H2            -18.6959767626       25.3413403774      -38.8162450101  TIP3      8135            0.0000000000
     49306      8336  TIP3      OH2            -1.4065110812       21.2372389873      -33.3129308450  TIP3      8136            0.0000000000
     49307      8336  TIP3      H1             -2.2014860730       21.6363234400      -32.8833393543  TIP3      8136            0.0000000000
     49308      8336  TIP3      H2             -1.8108879039       20.7699995219      -34.0644401465  TIP3      8136            0.0000000000
     49309      8337  TIP3      OH2            -1.3048253957       21.1438141280      -48.3194600018  TIP3      8137            0.0000000000
     49310      8337  TIP3      H1             -0.7845438218       20.5799982497      -48.9055844828  TIP3      8137            0.0000000000
     49311      8337  TIP3      H2             -0.6555319031       21.8536036537      -48.1434968405  TIP3      8137            0.0000000000
     49312      8338  TIP3      OH2           -18.9741061383       20.7776627021      -45.2042813417  TIP3      8138            0.0000000000
     49313      8338  TIP3      H1            -19.8958184680       21.0790267629      -45.1632700314  TIP3      8138            0.0000000000
     49314      8338  TIP3      H2            -18.6921590904       21.1491737744      -46.0571375973  TIP3      8138            0.0000000000
     49315      8339  TIP3      OH2            -4.4270671591       35.6302618370      -43.5734019592  TIP3      8139            0.0000000000
     49316      8339  TIP3      H1             -3.5922819540       35.5216692500      -44.0764949554  TIP3      8139            0.0000000000
     49317      8339  TIP3      H2             -4.1346404485       36.2183223600      -42.8576154960  TIP3      8139            0.0000000000
     49318      8340  TIP3      OH2           -19.0520990797       19.3773035851      -36.8874315225  TIP3      8140            0.0000000000
     49319      8340  TIP3      H1            -19.7876175614       18.9291030407      -36.4349077009  TIP3      8140            0.0000000000
     49320      8340  TIP3      H2            -19.5010615613       20.0711100076      -37.3921757217  TIP3      8140            0.0000000000
     49321      8341  TIP3      OH2           -16.7652165614       32.4647027652      -32.8518578815  TIP3      8141            0.0000000000
     49322      8341  TIP3      H1            -17.5784980508       32.5863003158      -33.3658546038  TIP3      8141            0.0000000000
     49323      8341  TIP3      H2            -17.0644501158       32.5815412203      -31.9448245018  TIP3      8141            0.0000000000
     49324      8342  TIP3      OH2           -13.9798053625       33.8797261075      -36.3811625568  TIP3      8142            0.0000000000
     49325      8342  TIP3      H1            -14.0347218896       34.8382636241      -36.5947978174  TIP3      8142            0.0000000000
     49326      8342  TIP3      H2            -13.0045536986       33.8277873612      -36.2947763537  TIP3      8142            0.0000000000
     49327      8343  TIP3      OH2            -9.5409719163       34.8113231612      -33.6808587032  TIP3      8143            0.0000000000
     49328      8343  TIP3      H1             -9.6390867138       34.6819454054      -32.7131285084  TIP3      8143            0.0000000000
     49329      8343  TIP3      H2             -8.7629935318       35.3940502066      -33.7258185800  TIP3      8143            0.0000000000
     49330      8344  TIP3      OH2            -7.2008337433       36.8049367923      -34.2352619293  TIP3      8144            0.0000000000
     49331      8344  TIP3      H1             -6.4017528035       36.2982366317      -34.4414953839  TIP3      8144            0.0000000000
     49332      8344  TIP3      H2             -7.1260738934       36.8563273438      -33.2577309978  TIP3      8144            0.0000000000
     49333      8345  TIP3      OH2            -2.2899732903       18.9162339424      -35.0588193809  TIP3      8145            0.0000000000
     49334      8345  TIP3      H1             -2.9992266641       19.3038261826      -35.5879105324  TIP3      8145            0.0000000000
     49335      8345  TIP3      H2             -2.1535259049       18.0589253792      -35.5203750918  TIP3      8145            0.0000000000
     49336      8346  TIP3      OH2           -16.5876116263       37.1640912283      -36.6362109991  TIP3      8146            0.0000000000
     49337      8346  TIP3      H1            -17.4668166400       37.2710809921      -37.0490802345  TIP3      8146            0.0000000000
     49338      8346  TIP3      H2            -16.8403199677       37.1802447420      -35.7026614710  TIP3      8146            0.0000000000
     49339      8347  TIP3      OH2           -14.1370667225       36.4168617598      -37.0900981646  TIP3      8147            0.0000000000
     49340      8347  TIP3      H1            -15.0371906629       36.7714911601      -36.8528239071  TIP3      8147            0.0000000000
     49341      8347  TIP3      H2            -14.0917528138       36.6823954009      -38.0314329442  TIP3      8147            0.0000000000
     49342      8348  TIP3      OH2            -9.2802925254       36.2103495736      -38.2546937712  TIP3      8148            0.0000000000
     49343      8348  TIP3      H1             -9.9413212294       36.3879078873      -38.9605009199  TIP3      8148            0.0000000000
     49344      8348  TIP3      H2             -9.2471452723       37.0742340238      -37.8035356803  TIP3      8148            0.0000000000
     49345      8349  TIP3      OH2            -7.4045498421       34.8359928821      -36.7440508110  TIP3      8149            0.0000000000
     49346      8349  TIP3      H1             -8.1275496387       35.3004090971      -37.2135031750  TIP3      8149            0.0000000000
     49347      8349  TIP3      H2             -6.6766747304       35.4579412161      -36.9089801966  TIP3      8149            0.0000000000
     49348      8350  TIP3      OH2            -5.0732344243       36.9597985370      -37.0641093623  TIP3      8150            0.0000000000
     49349      8350  TIP3      H1             -5.2502694332       37.8655318922      -37.3562251261  TIP3      8150            0.0000000000
     49350      8350  TIP3      H2             -4.5656937038       36.5954446492      -37.8383787333  TIP3      8150            0.0000000000
     49351      8351  TIP3      OH2           -16.9851455529       35.0358400933      -39.6157432136  TIP3      8151            0.0000000000
     49352      8351  TIP3      H1            -17.1312297423       34.4730030504      -38.8245002407  TIP3      8151            0.0000000000
     49353      8351  TIP3      H2            -16.1085031401       34.7165483138      -39.9378383234  TIP3      8151            0.0000000000
     49354      8352  TIP3      OH2           -14.7430776937       34.3225402125      -40.7293702137  TIP3      8152            0.0000000000
     49355      8352  TIP3      H1            -14.8583103077       33.3592680725      -40.5733804183  TIP3      8152            0.0000000000
     49356      8352  TIP3      H2            -13.9007801796       34.4493779460      -40.2408587093  TIP3      8152            0.0000000000
     49357      8353  TIP3      OH2           -12.4695155748       34.3061316011      -39.4704952566  TIP3      8153            0.0000000000
     49358      8353  TIP3      H1            -12.2027405508       33.4032762858      -39.7413226565  TIP3      8153            0.0000000000
     49359      8353  TIP3      H2            -12.2514256420       34.3313889008      -38.5220249990  TIP3      8153            0.0000000000
     49360      8354  TIP3      OH2            -9.4070273967       20.0729330774      -41.1169160539  TIP3      8154            0.0000000000
     49361      8354  TIP3      H1            -10.0553364641       19.7623098870      -40.4523824790  TIP3      8154            0.0000000000
     49362      8354  TIP3      H2             -8.9834172749       19.2391642567      -41.3518668336  TIP3      8154            0.0000000000
     49363      8355  TIP3      OH2            -3.6545791728       18.3537634399      -40.9519330077  TIP3      8155            0.0000000000
     49364      8355  TIP3      H1             -2.9562878187       18.8897979588      -41.3870555096  TIP3      8155            0.0000000000
     49365      8355  TIP3      H2             -4.4655414230       18.6899183827      -41.3954086420  TIP3      8155            0.0000000000
     49366      8356  TIP3      OH2            -1.9587815724       19.6327778060      -42.5882497197  TIP3      8156            0.0000000000
     49367      8356  TIP3      H1             -1.3188574625       19.0988488839      -43.1144661274  TIP3      8156            0.0000000000
     49368      8356  TIP3      H2             -1.4155196707       20.4467081098      -42.4307370231  TIP3      8156            0.0000000000
     49369      8357  TIP3      OH2           -16.5167430300       18.8878811198      -42.8809926185  TIP3      8157            0.0000000000
     49370      8357  TIP3      H1            -17.3270341410       18.8967927193      -43.4157942616  TIP3      8157            0.0000000000
     49371      8357  TIP3      H2            -16.1427985410       18.0075939666      -43.1152348097  TIP3      8157            0.0000000000
     49372      8358  TIP3      OH2           -17.7403087591       18.6174945951      -47.4169657178  TIP3      8158            0.0000000000
     49373      8358  TIP3      H1            -17.2745630376       19.3612360034      -47.8769400616  TIP3      8158            0.0000000000
     49374      8358  TIP3      H2            -18.2505236824       19.0890065975      -46.7403830195  TIP3      8158            0.0000000000
     49375      8359  TIP3      OH2           -12.0314838344       18.4020146225      -43.0457045087  TIP3      8159            0.0000000000
     49376      8359  TIP3      H1            -11.2291120131       18.6676438806      -43.5118540684  TIP3      8159            0.0000000000
     49377      8359  TIP3      H2            -12.0259333576       18.9654036720      -42.2481540345  TIP3      8159            0.0000000000
     49378      8360  TIP3      OH2            -6.1207737433       18.8379889814      -42.1071570670  TIP3      8160            0.0000000000
     49379      8360  TIP3      H1             -6.6878750086       19.0218625543      -42.8659360075  TIP3      8160            0.0000000000
     49380      8360  TIP3      H2             -6.6307168249       18.1256258084      -41.6563307198  TIP3      8160            0.0000000000
     49381      8361  TIP3      OH2            -4.8271519275       18.7190726738      -45.7463798317  TIP3      8161            0.0000000000
     49382      8361  TIP3      H1             -5.5950604597       19.3010434776      -45.8483858046  TIP3      8161            0.0000000000
     49383      8361  TIP3      H2             -5.2051384499       18.0015284853      -45.2001085801  TIP3      8161            0.0000000000
     49384      8362  TIP3      OH2           -17.8272585615       34.6435773745      -46.2303863311  TIP3      8162            0.0000000000
     49385      8362  TIP3      H1            -18.7337643013       34.5539053835      -46.5625125195  TIP3      8162            0.0000000000
     49386      8362  TIP3      H2            -17.6165821137       35.5417257797      -46.5469514762  TIP3      8162            0.0000000000
     49387      8363  TIP3      OH2           -16.1398363241       20.1807430404      -48.7757317728  TIP3      8163            0.0000000000
     49388      8363  TIP3      H1            -15.3009056194       19.7783927424      -49.0286379650  TIP3      8163            0.0000000000
     49389      8363  TIP3      H2            -15.8527114729       20.9828251137      -48.3188657548  TIP3      8163            0.0000000000
     49390      8364  TIP3      OH2           -10.8191199427       20.7775440692      -46.4297872115  TIP3      8164            0.0000000000
     49391      8364  TIP3      H1            -10.3153891344       20.3434170393      -45.7089873540  TIP3      8164            0.0000000000
     49392      8364  TIP3      H2            -10.7792748102       21.6920003987      -46.0743007648  TIP3      8164            0.0000000000
     49393      8365  TIP3      OH2            -8.8854161051       36.2057751008      -48.1028467295  TIP3      8165            0.0000000000
     49394      8365  TIP3      H1             -7.8971166483       36.1925385724      -48.0320119912  TIP3      8165            0.0000000000
     49395      8365  TIP3      H2             -8.9820692147       35.7612027020      -48.9641712591  TIP3      8165            0.0000000000
     49396      8366  TIP3      OH2            -2.3838971653       35.3278158330      -45.0843144848  TIP3      8166            0.0000000000
     49397      8366  TIP3      H1             -2.5865990222       34.4427795258      -45.4767134148  TIP3      8166            0.0000000000
     49398      8366  TIP3      H2             -2.3850051558       35.8979333726      -45.8822305728  TIP3      8166            0.0000000000
     49399      8367  TIP3      OH2           -16.7554201923       19.5927095000      -33.5102295888  TIP3      8167            0.0000000000
     49400      8367  TIP3      H1            -17.2984934922       18.7888506529      -33.4141666749  TIP3      8167            0.0000000000
     49401      8367  TIP3      H2            -16.0012633425       19.4087032536      -32.9117849742  TIP3      8167            0.0000000000
     49402      8368  TIP3      OH2           -14.8059481490       18.7634989786      -31.6184441824  TIP3      8168            0.0000000000
     49403      8368  TIP3      H1            -13.8687954529       18.6177563977      -31.8161745062  TIP3      8168            0.0000000000
     49404      8368  TIP3      H2            -15.0534561507       17.8912998376      -31.2547146823  TIP3      8168            0.0000000000
     49405      8369  TIP3      OH2           -15.7393329854       36.3542489879      -49.0937935892  TIP3      8169            0.0000000000
     49406      8369  TIP3      H1            -16.3695372823       36.4298869517      -48.3558117259  TIP3      8169            0.0000000000
     49407      8369  TIP3      H2            -15.1545775475       35.6799894537      -48.7326753728  TIP3      8169            0.0000000000
     49408      8370  TIP3      OH2            -6.2711905435       18.2688426811      -31.7953780899  TIP3      8170            0.0000000000
     49409      8370  TIP3      H1             -6.3707428386       17.6422991685      -31.0544397778  TIP3      8170            0.0000000000
     49410      8370  TIP3      H2             -5.3224409404       18.1130325650      -32.0083204842  TIP3      8170            0.0000000000
     49411      8371  TIP3      OH2            -3.3056058402       34.2014115482      -32.9864728149  TIP3      8171            0.0000000000
     49412      8371  TIP3      H1             -4.1029966869       34.1841777156      -33.5597805656  TIP3      8171            0.0000000000
     49413      8371  TIP3      H2             -3.0867479284       35.1437374739      -33.0235277037  TIP3      8171            0.0000000000
     49414      8372  TIP3      OH2            11.6132387413       28.2802105226      -43.1614355181  TIP3      8172            0.0000000000
     49415      8372  TIP3      H1             11.3756330192       29.1907870466      -42.9309061765  TIP3      8172            0.0000000000
     49416      8372  TIP3      H2             10.8912002736       28.0687551261      -43.7723527272  TIP3      8172            0.0000000000
     49417      8373  TIP3      OH2            10.3010620372       27.0721497005      -39.7466282529  TIP3      8173            0.0000000000
     49418      8373  TIP3      H1             10.3454624388       26.6538297981      -38.8548117974  TIP3      8173            0.0000000000
     49419      8373  TIP3      H2              9.6854276566       26.4649673770      -40.2125315006  TIP3      8173            0.0000000000
     49420      8374  TIP3      OH2             2.2861949123       26.9795004440      -38.2890708206  TIP3      8174            0.0000000000
     49421      8374  TIP3      H1              2.4195261831       26.2461950463      -37.6656400381  TIP3      8174            0.0000000000
     49422      8374  TIP3      H2              3.0015665037       27.5818534356      -38.0504762730  TIP3      8174            0.0000000000
     49423      8375  TIP3      OH2            13.6012582427       29.8960738961      -41.1499933934  TIP3      8175            0.0000000000
     49424      8375  TIP3      H1             13.4087717502       29.2144095538      -40.4757620550  TIP3      8175            0.0000000000
     49425      8375  TIP3      H2             13.5697548247       30.7015378925      -40.6208810350  TIP3      8175            0.0000000000
     49426      8376  TIP3      OH2             3.5106490072       31.6084777871      -39.8557306789  TIP3      8176            0.0000000000
     49427      8376  TIP3      H1              3.1924870125       30.7252887598      -40.1426031363  TIP3      8176            0.0000000000
     49428      8376  TIP3      H2              4.4655817569       31.4320583675      -39.9106056341  TIP3      8176            0.0000000000
     49429      8377  TIP3      OH2             0.2063953689       25.0098627702      -44.2522047017  TIP3      8177            0.0000000000
     49430      8377  TIP3      H1             -0.2119726643       25.8549081878      -44.0053778999  TIP3      8177            0.0000000000
     49431      8377  TIP3      H2             -0.0963226069       24.9185669697      -45.1752763255  TIP3      8177            0.0000000000
     49432      8378  TIP3      OH2             0.5772780763       27.2669022541      -41.8878126279  TIP3      8178            0.0000000000
     49433      8378  TIP3      H1              0.9552340602       26.3813106595      -41.6727026289  TIP3      8178            0.0000000000
     49434      8378  TIP3      H2              1.2812579920       27.6967327301      -42.4065905193  TIP3      8178            0.0000000000
     49435      8379  TIP3      OH2            10.7470159920       35.1135419383      -41.6680381375  TIP3      8179            0.0000000000
     49436      8379  TIP3      H1             11.6589182261       34.7383181256      -41.7340903802  TIP3      8179            0.0000000000
     49437      8379  TIP3      H2             10.4467752809       34.7176723059      -40.8364291443  TIP3      8179            0.0000000000
     49438      8380  TIP3      OH2             8.5626466783       29.7447808835      -39.0340353261  TIP3      8180            0.0000000000
     49439      8380  TIP3      H1              8.8493738963       29.0904206642      -39.6856842809  TIP3      8180            0.0000000000
     49440      8380  TIP3      H2              9.4269464741       30.0364767426      -38.6721255269  TIP3      8180            0.0000000000
     49441      8381  TIP3      OH2            17.1108460391       21.3176239157      -38.7546947647  TIP3      8181            0.0000000000
     49442      8381  TIP3      H1             17.1664807637       21.8031521118      -37.9081843783  TIP3      8181            0.0000000000
     49443      8381  TIP3      H2             17.9569728173       21.6070680045      -39.1290222163  TIP3      8181            0.0000000000
     49444      8382  TIP3      OH2            12.0454538876       24.3205245854      -38.6879836470  TIP3      8182            0.0000000000
     49445      8382  TIP3      H1             12.2909146892       23.3886835139      -38.5711860587  TIP3      8182            0.0000000000
     49446      8382  TIP3      H2             11.7685841866       24.2843426707      -39.6215957394  TIP3      8182            0.0000000000
     49447      8383  TIP3      OH2             4.9359185439       22.0496395980      -42.0637253991  TIP3      8183            0.0000000000
     49448      8383  TIP3      H1              5.0760399546       22.8558161786      -42.6064546412  TIP3      8183            0.0000000000
     49449      8383  TIP3      H2              4.5007006156       21.4718452090      -42.7278809040  TIP3      8183            0.0000000000
     49450      8384  TIP3      OH2            12.5735410858       22.4801336144      -43.3400774696  TIP3      8184            0.0000000000
     49451      8384  TIP3      H1             13.0618611331       22.1183537914      -42.5571637177  TIP3      8184            0.0000000000
     49452      8384  TIP3      H2             13.2142797840       23.1159690397      -43.6958334023  TIP3      8184            0.0000000000
     49453      8385  TIP3      OH2             1.4426908665       24.8475310065      -41.0501410494  TIP3      8185            0.0000000000
     49454      8385  TIP3      H1              2.0826527587       24.3532962241      -40.5069643390  TIP3      8185            0.0000000000
     49455      8385  TIP3      H2              1.7125774052       24.5170222886      -41.9316982950  TIP3      8185            0.0000000000
     49456      8386  TIP3      OH2             6.3218965926       26.2513223936      -41.5288426689  TIP3      8186            0.0000000000
     49457      8386  TIP3      H1              7.1833694327       25.8669316842      -41.2814646306  TIP3      8186            0.0000000000
     49458      8386  TIP3      H2              5.9171777053       25.5193710064      -42.0358815836  TIP3      8186            0.0000000000
     49459      8387  TIP3      OH2            17.3246998437       22.7261397447      -36.4480409367  TIP3      8187            0.0000000000
     49460      8387  TIP3      H1             16.9680501587       23.5907531869      -36.7502102678  TIP3      8187            0.0000000000
     49461      8387  TIP3      H2             17.3811113363       22.9018581162      -35.4930751665  TIP3      8187            0.0000000000
     49462      8388  TIP3      OH2             3.9560027499       21.2496546825      -37.6803179863  TIP3      8188            0.0000000000
     49463      8388  TIP3      H1              3.5628506205       21.6776571239      -38.4656386485  TIP3      8188            0.0000000000
     49464      8388  TIP3      H2              3.2859891441       21.5037444103      -37.0055974621  TIP3      8188            0.0000000000
     49465      8389  TIP3      OH2            10.8348008675       30.7575539926      -44.1717200760  TIP3      8189            0.0000000000
     49466      8389  TIP3      H1             10.7858361088       30.6641557039      -45.1501082499  TIP3      8189            0.0000000000
     49467      8389  TIP3      H2             10.6221717616       31.6991797884      -44.0842152407  TIP3      8189            0.0000000000
     49468      8390  TIP3      OH2             6.1473373665       28.8993939274      -38.0225379462  TIP3      8190            0.0000000000
     49469      8390  TIP3      H1              5.6413341072       29.6420264511      -37.6343508013  TIP3      8190            0.0000000000
     49470      8390  TIP3      H2              6.8825606342       29.3749679109      -38.4664590922  TIP3      8190            0.0000000000
     49471      8391  TIP3      OH2            14.3410464801       21.7699571610      -41.4158438231  TIP3      8191            0.0000000000
     49472      8391  TIP3      H1             14.3311135020       20.9849961853      -40.8584401599  TIP3      8191            0.0000000000
     49473      8391  TIP3      H2             15.1791639283       22.1788711973      -41.1695923684  TIP3      8191            0.0000000000
     49474      8392  TIP3      OH2             3.4459888324       23.1450242600      -39.9286997124  TIP3      8192            0.0000000000
     49475      8392  TIP3      H1              4.0969015680       23.7254680917      -39.4649288561  TIP3      8192            0.0000000000
     49476      8392  TIP3      H2              3.9819516049       22.8451020452      -40.7004931449  TIP3      8192            0.0000000000
     49477      8393  TIP3      OH2             4.8608605383       31.0663523953      -36.7979315167  TIP3      8193            0.0000000000
     49478      8393  TIP3      H1              4.7178499357       31.9580920084      -37.1690327713  TIP3      8193            0.0000000000
     49479      8393  TIP3      H2              3.9905317138       30.9063300607      -36.3534568206  TIP3      8193            0.0000000000
     49480      8394  TIP3      OH2             0.6226309002       30.3004832011      -45.9271285290  TIP3      8194            0.0000000000
     49481      8394  TIP3      H1              0.6741737748       30.8457735246      -46.7516231746  TIP3      8194            0.0000000000
     49482      8394  TIP3      H2              0.8123394986       30.9707782098      -45.2467056440  TIP3      8194            0.0000000000
     49483      8395  TIP3      OH2            14.4341351669       32.6804834426      -38.7100162030  TIP3      8195            0.0000000000
     49484      8395  TIP3      H1             13.4610768469       32.5887153664      -38.6619658064  TIP3      8195            0.0000000000
     49485      8395  TIP3      H2             14.4969234085       33.3454989674      -39.4040971432  TIP3      8195            0.0000000000
     49486      8396  TIP3      OH2            14.3856509011       20.6946131317      -38.0272998963  TIP3      8196            0.0000000000
     49487      8396  TIP3      H1             13.5942108877       20.8139151306      -38.6004243849  TIP3      8196            0.0000000000
     49488      8396  TIP3      H2             15.0883396660       20.9868018179      -38.6377444895  TIP3      8196            0.0000000000
     49489      8397  TIP3      OH2             7.4991224514       18.7642158010      -40.3408230029  TIP3      8197            0.0000000000
     49490      8397  TIP3      H1              7.1539580187       17.8704714866      -40.4364705188  TIP3      8197            0.0000000000
     49491      8397  TIP3      H2              6.6447425417       19.2165331704      -40.1093430155  TIP3      8197            0.0000000000
     49492      8398  TIP3      OH2            13.1465371713       33.9784658225      -42.1228370221  TIP3      8198            0.0000000000
     49493      8398  TIP3      H1             13.1281013894       33.1875735716      -42.6887351606  TIP3      8198            0.0000000000
     49494      8398  TIP3      H2             13.7705665302       34.5265363446      -42.6601635311  TIP3      8198            0.0000000000
     49495      8399  TIP3      OH2            13.9571607297       31.7550382327      -43.7419264263  TIP3      8199            0.0000000000
     49496      8399  TIP3      H1             13.6814627319       31.3678515425      -44.5833587032  TIP3      8199            0.0000000000
     49497      8399  TIP3      H2             13.8609702252       30.9940310262      -43.1449618727  TIP3      8199            0.0000000000
     49498      8400  TIP3      OH2            15.4303732396       30.5976003404      -35.3390784250  TIP3      8200            0.0000000000
     49499      8400  TIP3      H1             15.6087229701       29.8442583006      -35.9470978133  TIP3      8200            0.0000000000
     49500      8400  TIP3      H2             15.5880132986       31.3462268314      -35.9413872280  TIP3      8200            0.0000000000
     49501      8401  TIP3      OH2            10.0401461413       27.6838978533      -45.6937885429  TIP3      8201            0.0000000000
     49502      8401  TIP3      H1              9.4901356772       28.4620416767      -45.9490908463  TIP3      8201            0.0000000000
     49503      8401  TIP3      H2             10.7752404035       27.7137166928      -46.3390939379  TIP3      8201            0.0000000000
     49504      8402  TIP3      OH2            10.3651756287       25.9941737031      -48.6475924415  TIP3      8202            0.0000000000
     49505      8402  TIP3      H1             11.0337734770       26.4725816046      -48.1052203492  TIP3      8202            0.0000000000
     49506      8402  TIP3      H2             10.8597813202       25.1580915370      -48.8248213070  TIP3      8202            0.0000000000
     49507      8403  TIP3      OH2            17.5161458777       26.9894570818      -37.5335498679  TIP3      8203            0.0000000000
     49508      8403  TIP3      H1             16.8696085149       27.7189906478      -37.4323076533  TIP3      8203            0.0000000000
     49509      8403  TIP3      H2             18.0509857551       27.3889461234      -38.2576778873  TIP3      8203            0.0000000000
     49510      8404  TIP3      OH2            13.6687806516       27.3359947649      -44.6980853683  TIP3      8204            0.0000000000
     49511      8404  TIP3      H1             12.9826691602       27.7358305319      -44.1077299346  TIP3      8204            0.0000000000
     49512      8404  TIP3      H2             14.3093216604       26.9929131075      -44.0318948899  TIP3      8204            0.0000000000
     49513      8405  TIP3      OH2            13.4256587327       25.9471744765      -35.3913789331  TIP3      8205            0.0000000000
     49514      8405  TIP3      H1             13.2924149625       26.8851203479      -35.1905165624  TIP3      8205            0.0000000000
     49515      8405  TIP3      H2             12.7759414094       25.8341509448      -36.1069528580  TIP3      8205            0.0000000000
     49516      8406  TIP3      OH2             5.0837118995       28.2058229970      -42.9226785480  TIP3      8206            0.0000000000
     49517      8406  TIP3      H1              4.8883367117       27.9882576190      -43.8680194296  TIP3      8206            0.0000000000
     49518      8406  TIP3      H2              5.5919253298       27.4122776075      -42.6376585525  TIP3      8206            0.0000000000
     49519      8407  TIP3      OH2             6.4428538597       31.5389590048      -40.2259009987  TIP3      8207            0.0000000000
     49520      8407  TIP3      H1              6.5426710363       31.2916190853      -41.1616283540  TIP3      8207            0.0000000000
     49521      8407  TIP3      H2              7.2539446122       31.1594022388      -39.8280493596  TIP3      8207            0.0000000000
     49522      8408  TIP3      OH2             5.1712801867       26.7539261233      -39.1253485509  TIP3      8208            0.0000000000
     49523      8408  TIP3      H1              5.5524707876       26.7560387329      -40.0324830966  TIP3      8208            0.0000000000
     49524      8408  TIP3      H2              5.6596899632       27.5022139262      -38.7066308543  TIP3      8208            0.0000000000
     49525      8409  TIP3      OH2            11.7252798958       32.5700268613      -38.5197718767  TIP3      8209            0.0000000000
     49526      8409  TIP3      H1             11.3691475700       33.3159692161      -37.9988035191  TIP3      8209            0.0000000000
     49527      8409  TIP3      H2             11.3690901553       31.7955014521      -38.0347428910  TIP3      8209            0.0000000000
     49528      8410  TIP3      OH2             6.4823825269       31.4324604833      -34.4831479457  TIP3      8210            0.0000000000
     49529      8410  TIP3      H1              5.8605068362       32.0558755055      -34.0384571458  TIP3      8210            0.0000000000
     49530      8410  TIP3      H2              6.0328952698       31.3086860226      -35.3506750258  TIP3      8210            0.0000000000
     49531      8411  TIP3      OH2            12.2808221262       27.1091065034      -47.1370494469  TIP3      8211            0.0000000000
     49532      8411  TIP3      H1             12.7618601231       27.1331867455      -46.2725863606  TIP3      8211            0.0000000000
     49533      8411  TIP3      H2             12.9364464998       27.5266063712      -47.7517667789  TIP3      8211            0.0000000000
     49534      8412  TIP3      OH2             3.4520498424       27.5988568743      -35.4780623119  TIP3      8212            0.0000000000
     49535      8412  TIP3      H1              3.3265283284       28.5302298908      -35.2427820803  TIP3      8212            0.0000000000
     49536      8412  TIP3      H2              2.9134581402       27.1982922033      -34.7824575893  TIP3      8212            0.0000000000
     49537      8413  TIP3      OH2            10.0938390576       33.8218764681      -44.1537984845  TIP3      8213            0.0000000000
     49538      8413  TIP3      H1             10.3115117968       33.9577500604      -43.2174079783  TIP3      8213            0.0000000000
     49539      8413  TIP3      H2              9.4367374481       34.5299959866      -44.2635168789  TIP3      8213            0.0000000000
     49540      8414  TIP3      OH2             4.5408091211       33.2700515351      -33.8616567869  TIP3      8214            0.0000000000
     49541      8414  TIP3      H1              4.4288358407       33.3263111718      -34.8262714201  TIP3      8214            0.0000000000
     49542      8414  TIP3      H2              3.6825834626       32.8595640389      -33.5893475175  TIP3      8214            0.0000000000
     49543      8415  TIP3      OH2            16.4303909341       18.4839445801      -46.8138387261  TIP3      8215            0.0000000000
     49544      8415  TIP3      H1             15.4571718471       18.4542396971      -46.6698804601  TIP3      8215            0.0000000000
     49545      8415  TIP3      H2             16.5367232448       19.4235327831      -47.0282989668  TIP3      8215            0.0000000000
     49546      8416  TIP3      OH2             4.0459688070       27.1072811463      -45.1852268570  TIP3      8216            0.0000000000
     49547      8416  TIP3      H1              3.5344955426       27.8463613209      -45.5575778849  TIP3      8216            0.0000000000
     49548      8416  TIP3      H2              3.5616703690       26.3466230273      -45.5318929779  TIP3      8216            0.0000000000
     49549      8417  TIP3      OH2            17.4022874754       33.1407032817      -48.4431488452  TIP3      8217            0.0000000000
     49550      8417  TIP3      H1             17.8525742191       33.9916340484      -48.6254088768  TIP3      8217            0.0000000000
     49551      8417  TIP3      H2             18.1270870909       32.4820238547      -48.4741961191  TIP3      8217            0.0000000000
     49552      8418  TIP3      OH2             0.3915260418       29.7722308301      -36.1986881294  TIP3      8218            0.0000000000
     49553      8418  TIP3      H1              0.0385902364       29.6702918642      -37.0919943095  TIP3      8218            0.0000000000
     49554      8418  TIP3      H2              0.7033324670       28.8542236061      -36.0216617610  TIP3      8218            0.0000000000
     49555      8419  TIP3      OH2             0.1767711833       32.2608026902      -39.9589904583  TIP3      8219            0.0000000000
     49556      8419  TIP3      H1              1.1449847566       32.2183693508      -39.9249097000  TIP3      8219            0.0000000000
     49557      8419  TIP3      H2              0.0078087319       33.0069554589      -39.3664167793  TIP3      8219            0.0000000000
     49558      8420  TIP3      OH2            18.0377945269       33.2125576557      -33.5561355831  TIP3      8220            0.0000000000
     49559      8420  TIP3      H1             17.8304805092       32.2788030350      -33.7417506113  TIP3      8220            0.0000000000
     49560      8420  TIP3      H2             17.1897260003       33.5133893852      -33.1623099149  TIP3      8220            0.0000000000
     49561      8421  TIP3      OH2             9.0317985852       32.5301321121      -34.9989054612  TIP3      8221            0.0000000000
     49562      8421  TIP3      H1              9.1422604488       33.4180876473      -34.5867751046  TIP3      8221            0.0000000000
     49563      8421  TIP3      H2              8.1039176864       32.2954101746      -34.7916102241  TIP3      8221            0.0000000000
     49564      8422  TIP3      OH2             9.9340629387       36.7497241517      -45.1741093047  TIP3      8222            0.0000000000
     49565      8422  TIP3      H1              9.9635276447       36.6436239309      -46.1376927252  TIP3      8222            0.0000000000
     49566      8422  TIP3      H2              9.6551164594       37.6661154385      -45.0537091641  TIP3      8222            0.0000000000
     49567      8423  TIP3      OH2             3.2646737559       34.8405260870      -43.1865448632  TIP3      8223            0.0000000000
     49568      8423  TIP3      H1              3.6022724747       34.9553528245      -42.2652648288  TIP3      8223            0.0000000000
     49569      8423  TIP3      H2              2.6009628021       34.1409761101      -43.0139337581  TIP3      8223            0.0000000000
     49570      8424  TIP3      OH2            12.5332023805       35.8893666983      -47.7439625338  TIP3      8224            0.0000000000
     49571      8424  TIP3      H1             13.0211593144       35.2546985443      -48.3261889439  TIP3      8224            0.0000000000
     49572      8424  TIP3      H2             12.5857252942       35.4091205403      -46.8843496646  TIP3      8224            0.0000000000
     49573      8425  TIP3      OH2            12.2017151357       35.3439640061      -45.2319586127  TIP3      8225            0.0000000000
     49574      8425  TIP3      H1             11.3047240430       35.6344643313      -44.9704569957  TIP3      8225            0.0000000000
     49575      8425  TIP3      H2             12.2392912775       34.4523281226      -44.8583397739  TIP3      8225            0.0000000000
     49576      8426  TIP3      OH2            14.9999584824       24.3850335831      -33.3195251494  TIP3      8226            0.0000000000
     49577      8426  TIP3      H1             14.6684956486       24.8569919218      -34.1106536448  TIP3      8226            0.0000000000
     49578      8426  TIP3      H2             15.2099993330       23.5092624696      -33.7141674409  TIP3      8226            0.0000000000
     49579      8427  TIP3      OH2             2.5924906350       30.9840144658      -35.3799428935  TIP3      8227            0.0000000000
     49580      8427  TIP3      H1              2.5770340684       30.6402267613      -34.4576700875  TIP3      8227            0.0000000000
     49581      8427  TIP3      H2              1.6923268376       30.7383045002      -35.6971914245  TIP3      8227            0.0000000000
     49582      8428  TIP3      OH2             5.2167241047       19.7735221533      -39.5725401990  TIP3      8228            0.0000000000
     49583      8428  TIP3      H1              4.3193580059       19.6708947348      -39.9456348546  TIP3      8228            0.0000000000
     49584      8428  TIP3      H2              5.0069028489       20.2434356330      -38.7410845161  TIP3      8228            0.0000000000
     49585      8429  TIP3      OH2            10.0854767675       19.1412802213      -36.4396877064  TIP3      8229            0.0000000000
     49586      8429  TIP3      H1             10.4436088479       18.7187037845      -35.6217807256  TIP3      8229            0.0000000000
     49587      8429  TIP3      H2              9.1076923751       19.1035321495      -36.3105889359  TIP3      8229            0.0000000000
     49588      8430  TIP3      OH2            12.6754279466       23.3522324000      -34.9141373619  TIP3      8230            0.0000000000
     49589      8430  TIP3      H1             12.0879251226       22.9677303939      -34.2253190924  TIP3      8230            0.0000000000
     49590      8430  TIP3      H2             12.9817252971       24.1612314539      -34.4664662330  TIP3      8230            0.0000000000
     49591      8431  TIP3      OH2            14.0550498944       28.2363132810      -48.6138280654  TIP3      8231            0.0000000000
     49592      8431  TIP3      H1             13.7203193448       28.2754303960      -49.5455827282  TIP3      8231            0.0000000000
     49593      8431  TIP3      H2             15.0085655302       28.3068691109      -48.7954205912  TIP3      8231            0.0000000000
     49594      8432  TIP3      OH2             9.6845620620       21.8739679653      -48.6000557900  TIP3      8232            0.0000000000
     49595      8432  TIP3      H1              9.2469080600       21.5347783612      -47.7865858176  TIP3      8232            0.0000000000
     49596      8432  TIP3      H2              9.0032426034       21.6491711198      -49.2504281547  TIP3      8232            0.0000000000
     49597      8433  TIP3      OH2             5.2749789023       24.2795109867      -38.2113033340  TIP3      8233            0.0000000000
     49598      8433  TIP3      H1              4.4995037349       24.3910359975      -37.6211730879  TIP3      8233            0.0000000000
     49599      8433  TIP3      H2              5.3274705380       25.2004502575      -38.5628754747  TIP3      8233            0.0000000000
     49600      8434  TIP3      OH2             5.1215092199       24.3161325169      -43.4206750597  TIP3      8234            0.0000000000
     49601      8434  TIP3      H1              4.1595911615       24.3736956361      -43.6034978825  TIP3      8234            0.0000000000
     49602      8434  TIP3      H2              5.5354255435       24.3302448345      -44.3160684731  TIP3      8234            0.0000000000
     49603      8435  TIP3      OH2            10.9303934659       25.5051269348      -44.2729566878  TIP3      8235            0.0000000000
     49604      8435  TIP3      H1             10.5766860962       26.2703304840      -44.7906230735  TIP3      8235            0.0000000000
     49605      8435  TIP3      H2             11.5330078896       25.1127108772      -44.9374059160  TIP3      8235            0.0000000000
     49606      8436  TIP3      OH2             9.6937691791       25.5396422174      -33.2182416322  TIP3      8236            0.0000000000
     49607      8436  TIP3      H1              9.2731039773       24.7099839797      -32.9018733630  TIP3      8236            0.0000000000
     49608      8436  TIP3      H2             10.4997526404       25.5295597826      -32.6881390371  TIP3      8236            0.0000000000
     49609      8437  TIP3      OH2            11.9186699958       24.7336190150      -41.6834175868  TIP3      8237            0.0000000000
     49610      8437  TIP3      H1             11.7327357996       25.5817778048      -42.1197640221  TIP3      8237            0.0000000000
     49611      8437  TIP3      H2             11.8301039705       24.1530247527      -42.4602716803  TIP3      8237            0.0000000000
     49612      8438  TIP3      OH2             2.8754489087       24.5450982421      -36.9432921264  TIP3      8238            0.0000000000
     49613      8438  TIP3      H1              3.1261450255       24.9037032850      -36.0792910546  TIP3      8238            0.0000000000
     49614      8438  TIP3      H2              2.4658227575       23.6989848618      -36.6847449559  TIP3      8238            0.0000000000
     49615      8439  TIP3      OH2             6.2621337161       22.1306229823      -49.4122386443  TIP3      8239            0.0000000000
     49616      8439  TIP3      H1              5.8228448706       21.8836343970      -48.5652783853  TIP3      8239            0.0000000000
     49617      8439  TIP3      H2              5.7285375951       22.8841737664      -49.7139195567  TIP3      8239            0.0000000000
     49618      8440  TIP3      OH2            -0.3544560357       21.8087166318      -42.3448376692  TIP3      8240            0.0000000000
     49619      8440  TIP3      H1              0.3418399911       21.8882783075      -41.6758115441  TIP3      8240            0.0000000000
     49620      8440  TIP3      H2              0.0424439337       22.2093232311      -43.1325238681  TIP3      8240            0.0000000000
     49621      8441  TIP3      OH2             0.7697391193       22.4535620341      -47.1142533857  TIP3      8241            0.0000000000
     49622      8441  TIP3      H1              1.5177916717       22.9681034994      -47.4913011874  TIP3      8241            0.0000000000
     49623      8441  TIP3      H2              0.1550875054       23.1980938504      -46.9290673854  TIP3      8241            0.0000000000
     49624      8442  TIP3      OH2            10.8373425639       26.1882026748      -37.2609008697  TIP3      8242            0.0000000000
     49625      8442  TIP3      H1             11.3772357663       25.4965603077      -37.7156231901  TIP3      8242            0.0000000000
     49626      8442  TIP3      H2             10.2372164645       25.6197063874      -36.7205081051  TIP3      8242            0.0000000000
     49627      8443  TIP3      OH2             8.0640071281       22.0621133263      -42.1746744179  TIP3      8243            0.0000000000
     49628      8443  TIP3      H1              7.1134840684       22.1518174102      -42.0160327674  TIP3      8243            0.0000000000
     49629      8443  TIP3      H2              8.4018067928       21.6460583956      -41.3611529340  TIP3      8243            0.0000000000
     49630      8444  TIP3      OH2             2.3423950723       23.6737136780      -43.3091863999  TIP3      8244            0.0000000000
     49631      8444  TIP3      H1              1.5982069261       23.9663360285      -43.8814371172  TIP3      8244            0.0000000000
     49632      8444  TIP3      H2              2.6039464589       22.8007427791      -43.6479135625  TIP3      8244            0.0000000000
     49633      8445  TIP3      OH2             6.4340100221       23.9118027662      -45.8328256505  TIP3      8245            0.0000000000
     49634      8445  TIP3      H1              7.3739659624       24.0582483476      -46.0027248812  TIP3      8245            0.0000000000
     49635      8445  TIP3      H2              5.9680365104       24.4780136756      -46.4929321580  TIP3      8245            0.0000000000
     49636      8446  TIP3      OH2            12.1669835031       21.4418087384      -39.2491084395  TIP3      8246            0.0000000000
     49637      8446  TIP3      H1             11.5541379660       21.3296301282      -38.4978820744  TIP3      8246            0.0000000000
     49638      8446  TIP3      H2             11.7417875460       20.9169057184      -39.9523544826  TIP3      8246            0.0000000000
     49639      8447  TIP3      OH2             4.6468079434       25.0578357375      -47.6111483830  TIP3      8247            0.0000000000
     49640      8447  TIP3      H1              3.8511930857       24.9856791482      -48.1649218720  TIP3      8247            0.0000000000
     49641      8447  TIP3      H2              5.3446577820       25.0567298965      -48.2864286738  TIP3      8247            0.0000000000
     49642      8448  TIP3      OH2            14.9007161566       37.6209411469      -32.8967758262  TIP3      8248            0.0000000000
     49643      8448  TIP3      H1             15.1729643326       37.6224177728      -33.8306575031  TIP3      8248            0.0000000000
     49644      8448  TIP3      H2             15.7667511151       37.4469782003      -32.4644000658  TIP3      8248            0.0000000000
     49645      8449  TIP3      OH2             2.9346239047       29.3493083469      -32.9891374370  TIP3      8249            0.0000000000
     49646      8449  TIP3      H1              3.6004502180       29.4819680816      -32.2881807739  TIP3      8249            0.0000000000
     49647      8449  TIP3      H2              2.1173092735       29.2094433845      -32.4673516975  TIP3      8249            0.0000000000
     49648      8450  TIP3      OH2             8.9932425948       24.8727357799      -40.5004700561  TIP3      8250            0.0000000000
     49649      8450  TIP3      H1              9.6464675915       24.5045082459      -41.1112335525  TIP3      8250            0.0000000000
     49650      8450  TIP3      H2              8.7290331259       24.0970682970      -39.9938074118  TIP3      8250            0.0000000000
     49651      8451  TIP3      OH2             3.5078383993       20.9148602818      -44.0003805772  TIP3      8251            0.0000000000
     49652      8451  TIP3      H1              2.8502162238       20.3299565774      -43.5673809505  TIP3      8251            0.0000000000
     49653      8451  TIP3      H2              3.8874559665       20.2864787556      -44.6344594455  TIP3      8251            0.0000000000
     49654      8452  TIP3      OH2             7.6130921012       22.9682513316      -38.1442945504  TIP3      8252            0.0000000000
     49655      8452  TIP3      H1              6.8414156278       23.5730960462      -38.1552359703  TIP3      8252            0.0000000000
     49656      8452  TIP3      H2              8.2780549827       23.5015579748      -37.6761233338  TIP3      8252            0.0000000000
     49657      8453  TIP3      OH2             8.2587089511       29.6191445069      -46.1665155845  TIP3      8253            0.0000000000
     49658      8453  TIP3      H1              7.5113494884       29.0801612132      -46.4894729324  TIP3      8253            0.0000000000
     49659      8453  TIP3      H2              7.9091749608       29.8844222357      -45.2811240135  TIP3      8253            0.0000000000
     49660      8454  TIP3      OH2            15.6808296540       28.9372445685      -37.3449636396  TIP3      8254            0.0000000000
     49661      8454  TIP3      H1             16.1428911978       29.4927779738      -38.0169607486  TIP3      8254            0.0000000000
     49662      8454  TIP3      H2             14.8204898033       28.8398614031      -37.7771243587  TIP3      8254            0.0000000000
     49663      8455  TIP3      OH2            12.1999708565       22.3890611173      -47.9012914595  TIP3      8255            0.0000000000
     49664      8455  TIP3      H1             11.2522672792       22.3224416051      -48.1303155352  TIP3      8255            0.0000000000
     49665      8455  TIP3      H2             12.3098879708       23.3499432142      -47.8043906718  TIP3      8255            0.0000000000
     49666      8456  TIP3      OH2             9.4066386821       29.8083475283      -35.1011958446  TIP3      8256            0.0000000000
     49667      8456  TIP3      H1              9.3162608834       29.4723216804      -34.1996160679  TIP3      8256            0.0000000000
     49668      8456  TIP3      H2              9.2320860328       30.7600590679      -34.9706772430  TIP3      8256            0.0000000000
     49669      8457  TIP3      OH2            12.7912984558       24.6123598731      -46.4415282125  TIP3      8257            0.0000000000
     49670      8457  TIP3      H1             13.6200650814       24.3211804940      -46.0289526470  TIP3      8257            0.0000000000
     49671      8457  TIP3      H2             13.0285851427       25.4163899841      -46.9283827313  TIP3      8257            0.0000000000
     49672      8458  TIP3      OH2             3.4596766496       29.0702263407      -40.7547155882  TIP3      8258            0.0000000000
     49673      8458  TIP3      H1              3.9958846370       28.8712174233      -41.5515265854  TIP3      8258            0.0000000000
     49674      8458  TIP3      H2              3.6035409264       28.2761232122      -40.2163638808  TIP3      8258            0.0000000000
     49675      8459  TIP3      OH2            10.3607245385       31.1024428591      -46.7362091632  TIP3      8259            0.0000000000
     49676      8459  TIP3      H1             10.0062966561       32.0188441922      -46.7636086498  TIP3      8259            0.0000000000
     49677      8459  TIP3      H2              9.5490122685       30.5467656828      -46.7255806311  TIP3      8259            0.0000000000
     49678      8460  TIP3      OH2             0.3843297624       27.1971540331      -35.1886943517  TIP3      8260            0.0000000000
     49679      8460  TIP3      H1              0.2586661135       26.6152804277      -34.4152309326  TIP3      8260            0.0000000000
     49680      8460  TIP3      H2             -0.1666369034       26.7661329992      -35.8650373685  TIP3      8260            0.0000000000
     49681      8461  TIP3      OH2             7.1809288022       26.7705468789      -33.3156217887  TIP3      8261            0.0000000000
     49682      8461  TIP3      H1              6.8878512075       26.0700268018      -33.9137268316  TIP3      8261            0.0000000000
     49683      8461  TIP3      H2              8.1415391292       26.5843599479      -33.2706249666  TIP3      8261            0.0000000000
     49684      8462  TIP3      OH2            12.2463846270       32.1770431826      -34.8908022829  TIP3      8262            0.0000000000
     49685      8462  TIP3      H1             11.3811735070       32.2659390972      -35.3228222214  TIP3      8262            0.0000000000
     49686      8462  TIP3      H2             12.0329841961       32.6322587366      -34.0449187947  TIP3      8262            0.0000000000
     49687      8463  TIP3      OH2            17.7038037538       24.3955262011      -46.4984019932  TIP3      8263            0.0000000000
     49688      8463  TIP3      H1             17.0169955512       24.2213257556      -47.1754358305  TIP3      8263            0.0000000000
     49689      8463  TIP3      H2             17.7749966848       25.3617498681      -46.5930706468  TIP3      8263            0.0000000000
     49690      8464  TIP3      OH2            17.8835485647       30.3049113158      -34.0931493723  TIP3      8264            0.0000000000
     49691      8464  TIP3      H1             16.9736965477       30.4260146448      -34.4382885310  TIP3      8264            0.0000000000
     49692      8464  TIP3      H2             18.4029637178       30.1684100092      -34.9209162875  TIP3      8264            0.0000000000
     49693      8465  TIP3      OH2            16.0875457088       32.8334705281      -46.1084655840  TIP3      8265            0.0000000000
     49694      8465  TIP3      H1             15.3272569594       32.2404169692      -46.1315743068  TIP3      8265            0.0000000000
     49695      8465  TIP3      H2             16.4182798516       32.8087046925      -47.0328346152  TIP3      8265            0.0000000000
     49696      8466  TIP3      OH2            13.1070181621       28.0001577731      -39.2948419722  TIP3      8266            0.0000000000
     49697      8466  TIP3      H1             12.1884139329       27.7048675355      -39.4029027647  TIP3      8266            0.0000000000
     49698      8466  TIP3      H2             13.5492329436       27.4632983333      -39.9828277465  TIP3      8266            0.0000000000
     49699      8467  TIP3      OH2             5.5856160555       32.2039848756      -43.0072641667  TIP3      8267            0.0000000000
     49700      8467  TIP3      H1              5.9946047320       33.0689734141      -43.2253976368  TIP3      8267            0.0000000000
     49701      8467  TIP3      H2              4.7117330027       32.3094738306      -43.4133584569  TIP3      8267            0.0000000000
     49702      8468  TIP3      OH2             1.6308120461       27.1051238160      -48.9912993790  TIP3      8268            0.0000000000
     49703      8468  TIP3      H1              2.1799564863       27.7119808079      -48.4506665670  TIP3      8268            0.0000000000
     49704      8468  TIP3      H2              0.7566664946       27.2229075482      -48.5659847489  TIP3      8268            0.0000000000
     49705      8469  TIP3      OH2             7.0892940972       30.0373754462      -43.7010973123  TIP3      8269            0.0000000000
     49706      8469  TIP3      H1              6.5695135836       30.8591822959      -43.5714231719  TIP3      8269            0.0000000000
     49707      8469  TIP3      H2              6.6158449041       29.4043736233      -43.1311669632  TIP3      8269            0.0000000000
     49708      8470  TIP3      OH2             7.5636187672       34.1557417125      -36.7511977656  TIP3      8270            0.0000000000
     49709      8470  TIP3      H1              8.0691944123       34.9674475812      -36.9478361052  TIP3      8270            0.0000000000
     49710      8470  TIP3      H2              8.2812038678       33.5883836204      -36.4034857832  TIP3      8270            0.0000000000
     49711      8471  TIP3      OH2             5.9028755071       34.7555739199      -44.0760531061  TIP3      8271            0.0000000000
     49712      8471  TIP3      H1              4.9720844557       34.9555562255      -43.8583168695  TIP3      8271            0.0000000000
     49713      8471  TIP3      H2              6.3753153586       35.5539659639      -43.7356826669  TIP3      8271            0.0000000000
     49714      8472  TIP3      OH2            10.7501605769       30.1820021617      -37.5357887938  TIP3      8272            0.0000000000
     49715      8472  TIP3      H1             10.3235839656       29.9767757692      -36.6667421792  TIP3      8272            0.0000000000
     49716      8472  TIP3      H2             11.0671098384       29.3050430895      -37.8239725683  TIP3      8272            0.0000000000
     49717      8473  TIP3      OH2            13.5920730156       31.3857112968      -48.4507044196  TIP3      8273            0.0000000000
     49718      8473  TIP3      H1             13.8201042971       30.9017876048      -47.6284334893  TIP3      8273            0.0000000000
     49719      8473  TIP3      H2             12.6310965989       31.3573344605      -48.3533478928  TIP3      8273            0.0000000000
     49720      8474  TIP3      OH2            13.9912517910       34.7230859680      -35.2313789524  TIP3      8274            0.0000000000
     49721      8474  TIP3      H1             13.2340135505       34.1424183178      -35.4663222809  TIP3      8274            0.0000000000
     49722      8474  TIP3      H2             13.9360063258       35.4550556690      -35.8801800282  TIP3      8274            0.0000000000
     49723      8475  TIP3      OH2            18.2894809882       35.6714979986      -48.6629004350  TIP3      8275            0.0000000000
     49724      8475  TIP3      H1             19.0245916160       36.2439811003      -48.3908987188  TIP3      8275            0.0000000000
     49725      8475  TIP3      H2             17.5231528271       36.1317950262      -48.2423787352  TIP3      8275            0.0000000000
     49726      8476  TIP3      OH2             2.1866265769       22.0861589419      -35.7469788826  TIP3      8276            0.0000000000
     49727      8476  TIP3      H1              1.5721912989       22.5308484711      -35.1377053415  TIP3      8276            0.0000000000
     49728      8476  TIP3      H2              2.3653200009       21.2766832403      -35.2308776202  TIP3      8276            0.0000000000
     49729      8477  TIP3      OH2            14.2286474128       29.9200981663      -46.3036682935  TIP3      8277            0.0000000000
     49730      8477  TIP3      H1             14.0811613001       28.9638460097      -46.2637047316  TIP3      8277            0.0000000000
     49731      8477  TIP3      H2             15.2071696982       29.9147264614      -46.3383994146  TIP3      8277            0.0000000000
     49732      8478  TIP3      OH2             1.7869999550       33.5468531842      -37.0621756027  TIP3      8278            0.0000000000
     49733      8478  TIP3      H1              2.3076033128       32.7388002632      -37.1499581807  TIP3      8278            0.0000000000
     49734      8478  TIP3      H2              2.3271042396       34.0552499861      -36.4358309695  TIP3      8278            0.0000000000
     49735      8479  TIP3      OH2             6.1389828807       31.9875510069      -47.4632005903  TIP3      8279            0.0000000000
     49736      8479  TIP3      H1              6.9301119901       31.4945653027      -47.2085685511  TIP3      8279            0.0000000000
     49737      8479  TIP3      H2              6.3091960908       32.8947861233      -47.1167420298  TIP3      8279            0.0000000000
     49738      8480  TIP3      OH2             2.8114686199       28.8860108626      -47.1723213342  TIP3      8280            0.0000000000
     49739      8480  TIP3      H1              2.0998862161       29.3671763067      -46.7132901486  TIP3      8280            0.0000000000
     49740      8480  TIP3      H2              3.3723414191       29.6219286926      -47.4872371075  TIP3      8280            0.0000000000
     49741      8481  TIP3      OH2            10.6708194886       21.9445436163      -36.6337520923  TIP3      8281            0.0000000000
     49742      8481  TIP3      H1             11.5125656321       22.1379824539      -36.1992412191  TIP3      8281            0.0000000000
     49743      8481  TIP3      H2             10.4752276177       21.0316729096      -36.3507471558  TIP3      8281            0.0000000000
     49744      8482  TIP3      OH2            11.6693157473       21.0196094616      -45.3552024680  TIP3      8282            0.0000000000
     49745      8482  TIP3      H1             11.8850289682       21.7329016048      -45.9863824926  TIP3      8282            0.0000000000
     49746      8482  TIP3      H2             12.1114683451       21.3401409345      -44.5405477347  TIP3      8282            0.0000000000
     49747      8483  TIP3      OH2             9.4716743338       33.5874089536      -47.2797704892  TIP3      8283            0.0000000000
     49748      8483  TIP3      H1              8.7033157242       33.6832580822      -46.7000493828  TIP3      8283            0.0000000000
     49749      8483  TIP3      H2              9.5832153848       34.5036872336      -47.5895045252  TIP3      8283            0.0000000000
     49750      8484  TIP3      OH2             9.0899636425       23.0615216125      -44.6243092171  TIP3      8284            0.0000000000
     49751      8484  TIP3      H1              9.5955552077       23.8988607134      -44.6200657487  TIP3      8284            0.0000000000
     49752      8484  TIP3      H2              8.6941267020       23.0075640312      -43.7379237369  TIP3      8284            0.0000000000
     49753      8485  TIP3      OH2             9.5501558285       24.4276278004      -35.7587968533  TIP3      8285            0.0000000000
     49754      8485  TIP3      H1              9.6115340115       24.8223950353      -34.8587143586  TIP3      8285            0.0000000000
     49755      8485  TIP3      H2             10.1498032060       23.6576272914      -35.7233280245  TIP3      8285            0.0000000000
     49756      8486  TIP3      OH2             9.4685141669       19.9948958396      -44.0826114263  TIP3      8286            0.0000000000
     49757      8486  TIP3      H1              9.0168446157       20.7165364847      -43.6108160150  TIP3      8286            0.0000000000
     49758      8486  TIP3      H2             10.2465416922       20.4828612207      -44.4769522920  TIP3      8286            0.0000000000
     49759      8487  TIP3      OH2             6.4441260894       34.7103510563      -46.7751545865  TIP3      8287            0.0000000000
     49760      8487  TIP3      H1              6.6787740198       35.5975747391      -47.1151838523  TIP3      8287            0.0000000000
     49761      8487  TIP3      H2              6.0426079323       34.8969059025      -45.9056773422  TIP3      8287            0.0000000000
     49762      8488  TIP3      OH2             5.3572205047       21.5409623021      -46.9782146216  TIP3      8288            0.0000000000
     49763      8488  TIP3      H1              5.4077024370       22.3168160206      -46.3918230812  TIP3      8288            0.0000000000
     49764      8488  TIP3      H2              6.1557060808       21.0561491479      -46.7279940551  TIP3      8288            0.0000000000
     49765      8489  TIP3      OH2            15.1676432991       22.0892480474      -34.7997166096  TIP3      8289            0.0000000000
     49766      8489  TIP3      H1             14.2064638170       22.1473661275      -34.9741847679  TIP3      8289            0.0000000000
     49767      8489  TIP3      H2             15.5484281301       22.0214920830      -35.6985698122  TIP3      8289            0.0000000000
     49768      8490  TIP3      OH2            14.2294847498       25.8105845702      -40.7424223898  TIP3      8290            0.0000000000
     49769      8490  TIP3      H1             13.4602463657       25.2268127762      -40.8607022847  TIP3      8290            0.0000000000
     49770      8490  TIP3      H2             14.8252425437       25.2512865960      -40.2051682900  TIP3      8290            0.0000000000
     49771      8491  TIP3      OH2             3.4392965170       31.4980811647      -48.1660951323  TIP3      8291            0.0000000000
     49772      8491  TIP3      H1              4.1706459402       32.0550958551      -47.8330629494  TIP3      8291            0.0000000000
     49773      8491  TIP3      H2              3.7775119174       31.2525485856      -49.0478300211  TIP3      8291            0.0000000000
     49774      8492  TIP3      OH2             1.7791852483       24.3701887398      -48.5966875289  TIP3      8292            0.0000000000
     49775      8492  TIP3      H1              1.8024767932       25.3383790452      -48.6088045942  TIP3      8292            0.0000000000
     49776      8492  TIP3      H2              1.1353046178       24.1824675258      -49.3034124662  TIP3      8292            0.0000000000
     49777      8493  TIP3      OH2            15.3265748546       35.7828838935      -38.8947931310  TIP3      8293            0.0000000000
     49778      8493  TIP3      H1             15.1957708076       36.0515137255      -39.8319795599  TIP3      8293            0.0000000000
     49779      8493  TIP3      H2             16.3066962678       35.7134122484      -38.9264407733  TIP3      8293            0.0000000000
     49780      8494  TIP3      OH2             2.6150819044       19.1740811235      -40.1112263461  TIP3      8294            0.0000000000
     49781      8494  TIP3      H1              2.5780013932       18.9980085063      -41.0766859374  TIP3      8294            0.0000000000
     49782      8494  TIP3      H2              2.3403023142       18.2911801290      -39.7722790040  TIP3      8294            0.0000000000
     49783      8495  TIP3      OH2             1.3608721114       32.7362054238      -44.2510809188  TIP3      8295            0.0000000000
     49784      8495  TIP3      H1              0.6015489635       33.2710524048      -43.9905185116  TIP3      8295            0.0000000000
     49785      8495  TIP3      H2              1.6019630647       33.2131089917      -45.0668932810  TIP3      8295            0.0000000000
     49786      8496  TIP3      OH2             0.6138143828       35.8042752284      -33.0297800776  TIP3      8296            0.0000000000
     49787      8496  TIP3      H1              1.3700706957       35.7274633447      -32.4090153533  TIP3      8296            0.0000000000
     49788      8496  TIP3      H2              0.1919396260       34.9321199357      -32.8925296290  TIP3      8296            0.0000000000
     49789      8497  TIP3      OH2             4.8628633679       34.7235261874      -31.2838499766  TIP3      8297            0.0000000000
     49790      8497  TIP3      H1              5.7367956059       35.1448725821      -31.1969458004  TIP3      8297            0.0000000000
     49791      8497  TIP3      H2              5.0707841872       34.0513564508      -31.9550501807  TIP3      8297            0.0000000000
     49792      8498  TIP3      OH2             9.6281613183       33.6629421113       49.6200406403  TIP3      8298            0.0000000000
     49793      8498  TIP3      H1              8.8122675580       33.1482127281       49.6959295010  TIP3      8298            0.0000000000
     49794      8498  TIP3      H2             10.2005731915       33.1877259002       50.2333847067  TIP3      8298            0.0000000000
     49795      8499  TIP3      OH2            11.8315982380       33.2206965225      -32.4635346710  TIP3      8299            0.0000000000
     49796      8499  TIP3      H1             11.5426306111       32.3546045278      -32.0827237123  TIP3      8299            0.0000000000
     49797      8499  TIP3      H2             12.6562869249       33.4132423421      -31.9699247563  TIP3      8299            0.0000000000
     49798      8500  TIP3      OH2            13.6428497387       33.9779009090      -49.1070443574  TIP3      8300            0.0000000000
     49799      8500  TIP3      H1             13.9725829916       33.0779653119      -48.9179319169  TIP3      8300            0.0000000000
     49800      8500  TIP3      H2             14.2920054104       34.3935513892      -49.7192977520  TIP3      8300            0.0000000000
     49801      8501  TIP3      OH2             0.4120840000       29.4465049425      -31.8130780742  TIP3      8301            0.0000000000
     49802      8501  TIP3      H1              0.0620478399       28.5386123420      -31.7788656411  TIP3      8301            0.0000000000
     49803      8501  TIP3      H2             -0.0533522022       29.8060221544      -32.6019068734  TIP3      8301            0.0000000000
     49804      8502  TIP3      OH2             5.2090701368       29.0741888030      -49.3396918545  TIP3      8302            0.0000000000
     49805      8502  TIP3      H1              5.3512704017       28.6233983107      -48.4810773345  TIP3      8302            0.0000000000
     49806      8502  TIP3      H2              6.0834061702       28.9261376664      -49.7652694900  TIP3      8302            0.0000000000
     49807      8503  TIP3      OH2             7.2484093624       29.4192468405      -32.9220871300  TIP3      8303            0.0000000000
     49808      8503  TIP3      H1              6.9698208403       30.0639037167      -33.6175589007  TIP3      8303            0.0000000000
     49809      8503  TIP3      H2              7.0283218899       28.5367446094      -33.3046655841  TIP3      8303            0.0000000000
     49810      8504  TIP3      OH2            12.9509129874       29.4048092509      -34.9464924311  TIP3      8304            0.0000000000
     49811      8504  TIP3      H1             13.7495856037       29.9726309579      -35.0224814050  TIP3      8304            0.0000000000
     49812      8504  TIP3      H2             12.2865320790       30.1184469721      -34.9765546294  TIP3      8304            0.0000000000
     49813      8505  TIP3      OH2             1.7134046068       26.6540931875      -32.2495278395  TIP3      8305            0.0000000000
     49814      8505  TIP3      H1              2.3901986376       25.9935749986      -32.4356538945  TIP3      8305            0.0000000000
     49815      8505  TIP3      H2              2.0833453759       27.1304843785      -31.4786923000  TIP3      8305            0.0000000000
     49816      8506  TIP3      OH2             6.1340904088       27.6236721220      -47.1822381508  TIP3      8306            0.0000000000
     49817      8506  TIP3      H1              5.4124866957       27.0783543977      -46.8165012900  TIP3      8306            0.0000000000
     49818      8506  TIP3      H2              6.5849187002       26.9757918346      -47.7743079850  TIP3      8306            0.0000000000
     49819      8507  TIP3      OH2             5.2761551289       25.6792873149      -35.4656627319  TIP3      8307            0.0000000000
     49820      8507  TIP3      H1              4.7576884537       26.5089067999      -35.4296738555  TIP3      8307            0.0000000000
     49821      8507  TIP3      H2              6.0095322756       25.9953671023      -36.0216994961  TIP3      8307            0.0000000000
     49822      8508  TIP3      OH2             7.4244970608       25.9556076161      -48.7498849295  TIP3      8308            0.0000000000
     49823      8508  TIP3      H1              7.3179870211       26.4421870508      -49.5975655136  TIP3      8308            0.0000000000
     49824      8508  TIP3      H2              8.3951447242       25.9196980168      -48.6685633577  TIP3      8308            0.0000000000
     49825      8509  TIP3      OH2            10.8546406879       28.3575235729      -31.6812452077  TIP3      8309            0.0000000000
     49826      8509  TIP3      H1             11.4249011517       27.8768642879      -32.2966429073  TIP3      8309            0.0000000000
     49827      8509  TIP3      H2             10.4473529246       27.6587606161      -31.1344303350  TIP3      8309            0.0000000000
     49828      8510  TIP3      OH2            16.4002362510       28.1208026974       50.2324221615  TIP3      8310            0.0000000000
     49829      8510  TIP3      H1             16.9903851268       27.8193444358       49.5312919849  TIP3      8310            0.0000000000
     49830      8510  TIP3      H2             16.5447515574       29.0945585616       50.1258207931  TIP3      8310            0.0000000000
     49831      8511  TIP3      OH2             6.0561551953       23.2330284812      -34.5752077955  TIP3      8311            0.0000000000
     49832      8511  TIP3      H1              6.0976618791       22.5476799876      -35.2839613398  TIP3      8311            0.0000000000
     49833      8511  TIP3      H2              5.8722081926       24.0563041061      -35.0820790183  TIP3      8311            0.0000000000
     49834      8512  TIP3      OH2             6.3651982670       21.3021217473      -36.4787290510  TIP3      8312            0.0000000000
     49835      8512  TIP3      H1              6.8620058983       21.8049421121      -37.1706693199  TIP3      8312            0.0000000000
     49836      8512  TIP3      H2              5.4522242962       21.2943559894      -36.8418025468  TIP3      8312            0.0000000000
     49837      8513  TIP3      OH2             7.6005740362       27.1454299158      -36.4561662083  TIP3      8313            0.0000000000
     49838      8513  TIP3      H1              8.4760458276       27.5127366964      -36.6531463995  TIP3      8313            0.0000000000
     49839      8513  TIP3      H2              7.0119318949       27.8058868832      -36.8772482300  TIP3      8313            0.0000000000
     49840      8514  TIP3      OH2            11.9010307311       24.6541270919      -31.5913034027  TIP3      8314            0.0000000000
     49841      8514  TIP3      H1             12.1221326335       23.7101106789      -31.6656609734  TIP3      8314            0.0000000000
     49842      8514  TIP3      H2             12.5117048938       25.0482906857      -32.2348887910  TIP3      8314            0.0000000000
     49843      8515  TIP3      OH2            13.6460999966       27.6585101129      -33.0206343425  TIP3      8315            0.0000000000
     49844      8515  TIP3      H1             13.3503242531       28.3116192070      -33.6804077242  TIP3      8315            0.0000000000
     49845      8515  TIP3      H2             14.6089854631       27.6824077932      -33.1661932578  TIP3      8315            0.0000000000
     49846      8516  TIP3      OH2             4.5749100690       24.0510635864      -32.2946912586  TIP3      8316            0.0000000000
     49847      8516  TIP3      H1              3.7060130126       23.6099480456      -32.4237429568  TIP3      8316            0.0000000000
     49848      8516  TIP3      H2              5.0657339050       23.7405807008      -33.0838150384  TIP3      8316            0.0000000000
     49849      8517  TIP3      OH2             7.3707384071       18.8613793101      -36.4349892957  TIP3      8317            0.0000000000
     49850      8517  TIP3      H1              6.9736214240       19.7542873367      -36.3245653790  TIP3      8317            0.0000000000
     49851      8517  TIP3      H2              6.5872731273       18.3332407139      -36.6697922399  TIP3      8317            0.0000000000
     49852      8518  TIP3      OH2             8.2555261037       23.2427583881      -32.4743288225  TIP3      8318            0.0000000000
     49853      8518  TIP3      H1              7.7800553081       22.8012849030      -31.7500883688  TIP3      8318            0.0000000000
     49854      8518  TIP3      H2              7.6232282904       23.1043922040      -33.1989517817  TIP3      8318            0.0000000000
     49855      8519  TIP3      OH2            10.9565423710       22.4131401181      -33.1798370427  TIP3      8319            0.0000000000
     49856      8519  TIP3      H1              9.9925533460       22.4020440313      -33.0343251363  TIP3      8319            0.0000000000
     49857      8519  TIP3      H2             11.2872623538       21.7789531126      -32.5109110757  TIP3      8319            0.0000000000
     49858      8520  TIP3      OH2            12.4412621920       20.9455264063      -31.5186763327  TIP3      8320            0.0000000000
     49859      8520  TIP3      H1             12.4573206556       19.9638655860      -31.5517354609  TIP3      8320            0.0000000000
     49860      8520  TIP3      H2             12.4950131213       21.1864492708      -30.5762522333  TIP3      8320            0.0000000000
     49861      8521  TIP3      OH2             2.4003812384       22.3439873226      -32.2478547655  TIP3      8321            0.0000000000
     49862      8521  TIP3      H1              2.3027224923       21.5211173937      -32.7684484138  TIP3      8321            0.0000000000
     49863      8521  TIP3      H2              2.2108839997       22.0139381966      -31.3315584715  TIP3      8321            0.0000000000
     49864      8522  TIP3      OH2             7.2052837205       18.5656385403      -33.5075020354  TIP3      8322            0.0000000000
     49865      8522  TIP3      H1              7.9301784038       17.9349496235      -33.3475438868  TIP3      8322            0.0000000000
     49866      8522  TIP3      H2              7.2555698388       18.6004852145      -34.4807103480  TIP3      8322            0.0000000000
     49867      8523  TIP3      OH2             7.4592712133       19.7832447210      -31.0787482761  TIP3      8323            0.0000000000
     49868      8523  TIP3      H1              7.2746812166       19.3944201184      -31.9652947887  TIP3      8323            0.0000000000
     49869      8523  TIP3      H2              6.7585867177       20.4720004564      -31.0487823135  TIP3      8323            0.0000000000
     49870      8524  TIP3      OH2             7.2534501975       36.8656132942      -48.2900110045  TIP3      8324            0.0000000000
     49871      8524  TIP3      H1              8.1939102711       36.8701061052      -48.0355443951  TIP3      8324            0.0000000000
     49872      8524  TIP3      H2              7.3346797353       36.9585414965      -49.2674667407  TIP3      8324            0.0000000000
     49873      8525  TIP3      OH2             0.7577729963       31.4291679297      -48.3875028870  TIP3      8325            0.0000000000
     49874      8525  TIP3      H1              1.7411617974       31.4932700910      -48.2902872395  TIP3      8325            0.0000000000
     49875      8525  TIP3      H2              0.6813848915       31.1981054886      -49.3228217073  TIP3      8325            0.0000000000
     49876      8526  TIP3      OH2            -0.5827183175       36.7445670696      -43.8402532604  TIP3      8326            0.0000000000
     49877      8526  TIP3      H1             -1.3313745542       36.2512829767      -44.2269492211  TIP3      8326            0.0000000000
     49878      8526  TIP3      H2             -0.4228572579       36.1618621892      -43.0768153666  TIP3      8326            0.0000000000
     49879      8527  TIP3      OH2             0.3533837259       34.7550832151      -41.7382341216  TIP3      8327            0.0000000000
     49880      8527  TIP3      H1             -0.3312117904       34.1167607715      -41.4710961849  TIP3      8327            0.0000000000
     49881      8527  TIP3      H2              0.8566403427       34.8569032596      -40.8985320658  TIP3      8327            0.0000000000
     49882      8528  TIP3      OH2            18.0759687511       35.8461190613      -39.3484895675  TIP3      8328            0.0000000000
     49883      8528  TIP3      H1             18.1953674952       36.2563675096      -38.4662200104  TIP3      8328            0.0000000000
     49884      8528  TIP3      H2             18.5817305684       36.4390869697      -39.9114872853  TIP3      8328            0.0000000000
     49885      8529  TIP3      OH2            17.3866320907       35.1040536042      -35.9115216718  TIP3      8329            0.0000000000
     49886      8529  TIP3      H1             17.0872925012       34.3707667940      -36.5020194737  TIP3      8329            0.0000000000
     49887      8529  TIP3      H2             17.8857098946       34.5577532183      -35.2835949755  TIP3      8329            0.0000000000
     49888      8530  TIP3      OH2            15.9756968547       31.0466623051      -31.4163970014  TIP3      8330            0.0000000000
     49889      8530  TIP3      H1             15.0654814953       31.1828124296      -31.7182870469  TIP3      8330            0.0000000000
     49890      8530  TIP3      H2             16.2613983463       31.9387502555      -31.1243211341  TIP3      8330            0.0000000000
     49891      8531  TIP3      OH2            16.8959026407       29.4348041757      -46.1563620126  TIP3      8331            0.0000000000
     49892      8531  TIP3      H1             17.7804184809       29.8210096121      -45.9518799655  TIP3      8331            0.0000000000
     49893      8531  TIP3      H2             16.7227557536       28.8611871910      -45.3894748861  TIP3      8331            0.0000000000
     49894      8532  TIP3      OH2            17.5136238021       27.4720897125      -43.7883406519  TIP3      8332            0.0000000000
     49895      8532  TIP3      H1             16.7170543741       27.0024602139      -43.4554073613  TIP3      8332            0.0000000000
     49896      8532  TIP3      H2             18.0038827232       27.6407759271      -42.9589583791  TIP3      8332            0.0000000000
     49897      8533  TIP3      OH2            17.2089546631       30.1144273621      -39.1609496914  TIP3      8333            0.0000000000
     49898      8533  TIP3      H1             17.8752076643       29.4081905854      -39.3043871811  TIP3      8333            0.0000000000
     49899      8533  TIP3      H2             17.6648154615       30.8736927717      -39.5745623590  TIP3      8333            0.0000000000
     49900      8534  TIP3      OH2            15.9841895108       33.0132732340      -36.6380680085  TIP3      8334            0.0000000000
     49901      8534  TIP3      H1             15.2800475616       33.5154738319      -36.1882054815  TIP3      8334            0.0000000000
     49902      8534  TIP3      H2             15.5248641387       32.8171659325      -37.4945685656  TIP3      8334            0.0000000000
     49903      8535  TIP3      OH2            18.0151912762       27.3678070029      -47.7121314890  TIP3      8335            0.0000000000
     49904      8535  TIP3      H1             17.3975275368       27.6539861667      -48.4237631188  TIP3      8335            0.0000000000
     49905      8535  TIP3      H2             17.9259540552       28.1208675112      -47.0908623569  TIP3      8335            0.0000000000
     49906      8536  TIP3      OH2            15.8237650375       24.1951640289      -48.5222620566  TIP3      8336            0.0000000000
     49907      8536  TIP3      H1             15.7346888908       24.8789586657      -49.2203943360  TIP3      8336            0.0000000000
     49908      8536  TIP3      H2             16.3293191947       23.5399330843      -49.0233718001  TIP3      8336            0.0000000000
     49909      8537  TIP3      OH2            15.4895811475       25.9458429862      -43.1190944070  TIP3      8337            0.0000000000
     49910      8537  TIP3      H1             15.2952429499       25.0431503401      -43.4078927843  TIP3      8337            0.0000000000
     49911      8537  TIP3      H2             15.1296457303       25.9587698206      -42.2043876472  TIP3      8337            0.0000000000
     49912      8538  TIP3      OH2             0.2729700162       28.1996409945      -39.3321267485  TIP3      8338            0.0000000000
     49913      8538  TIP3      H1              0.3385808853       27.8946475153      -40.2657025359  TIP3      8338            0.0000000000
     49914      8538  TIP3      H2              1.1314243420       27.8372565156      -39.0042106522  TIP3      8338            0.0000000000
     49915      8539  TIP3      OH2            16.4866208253       27.8331533703      -33.6556182613  TIP3      8339            0.0000000000
     49916      8539  TIP3      H1             16.9523843610       26.9755137921      -33.4760366909  TIP3      8339            0.0000000000
     49917      8539  TIP3      H2             17.2154941978       28.4378381461      -33.9030337258  TIP3      8339            0.0000000000
     49918      8540  TIP3      OH2            17.4583961882       25.2974169178      -33.2828705148  TIP3      8340            0.0000000000
     49919      8540  TIP3      H1             16.5420524241       24.9612910166      -33.2898810858  TIP3      8340            0.0000000000
     49920      8540  TIP3      H2             17.9888543797       24.5037399035      -33.0345359540  TIP3      8340            0.0000000000
     49921      8541  TIP3      OH2            15.5580455307       21.7194917738      -50.2083662565  TIP3      8341            0.0000000000
     49922      8541  TIP3      H1             16.1244617366       21.3760460045      -49.4853661684  TIP3      8341            0.0000000000
     49923      8541  TIP3      H2             14.6707489017       21.6097294094      -49.8455292361  TIP3      8341            0.0000000000
     49924      8542  TIP3      OH2            14.9531588326       23.6214761329      -44.9248121763  TIP3      8342            0.0000000000
     49925      8542  TIP3      H1             15.1447205064       22.6941172798      -44.6406264291  TIP3      8342            0.0000000000
     49926      8542  TIP3      H2             15.6810726248       23.7443736070      -45.5468503877  TIP3      8342            0.0000000000
     49927      8543  TIP3      OH2            15.9293915774       24.1150190555      -39.2292152439  TIP3      8343            0.0000000000
     49928      8543  TIP3      H1             16.9157401171       24.1896273310      -39.1465955393  TIP3      8343            0.0000000000
     49929      8543  TIP3      H2             15.6745145139       24.1859315979      -38.2913231894  TIP3      8343            0.0000000000
     49930      8544  TIP3      OH2            15.8226021932       24.9009125839      -36.5845307420  TIP3      8344            0.0000000000
     49931      8544  TIP3      H1             14.9328734351       25.1889348555      -36.3107705852  TIP3      8344            0.0000000000
     49932      8544  TIP3      H2             16.2705175247       25.7393195345      -36.8318522839  TIP3      8344            0.0000000000
     49933      8545  TIP3      OH2             0.2026759713       23.2609238148      -33.2497144813  TIP3      8345            0.0000000000
     49934      8545  TIP3      H1              1.0607729380       23.0771529703      -32.8124979030  TIP3      8345            0.0000000000
     49935      8545  TIP3      H2             -0.2829397613       22.4147032007      -33.1065207965  TIP3      8345            0.0000000000
     49936      8546  TIP3      OH2            18.0485119366       19.2588750775      -31.6136512046  TIP3      8346            0.0000000000
     49937      8546  TIP3      H1             18.3985548529       18.4608750113      -32.0425754044  TIP3      8346            0.0000000000
     49938      8546  TIP3      H2             18.0661341050       19.9044105426      -32.3510088645  TIP3      8346            0.0000000000
     49939      8547  TIP3      OH2            15.6867992042       21.0756660437      -44.6662748316  TIP3      8347            0.0000000000
     49940      8547  TIP3      H1             16.0865252428       20.6208492149      -43.8963550874  TIP3      8347            0.0000000000
     49941      8547  TIP3      H2             15.1862903405       20.3515566625      -45.0790100560  TIP3      8347            0.0000000000
     49942      8548  TIP3      OH2             1.1426416750       21.5184093077      -39.6307861158  TIP3      8348            0.0000000000
     49943      8548  TIP3      H1              1.5538486725       20.6294881312      -39.6918175954  TIP3      8348            0.0000000000
     49944      8548  TIP3      H2              1.8911861843       22.0999064539      -39.8660043710  TIP3      8348            0.0000000000
     49945      8549  TIP3      OH2            -0.3091460316       24.6060530804      -39.0686731975  TIP3      8349            0.0000000000
     49946      8549  TIP3      H1              0.2402360392       24.3585302562      -39.8375467283  TIP3      8349            0.0000000000
     49947      8549  TIP3      H2              0.1490061278       25.4080000413      -38.7910104896  TIP3      8349            0.0000000000
     49948      8550  TIP3      OH2            17.5491570637       21.0727235256      -33.5731427642  TIP3      8350            0.0000000000
     49949      8550  TIP3      H1             16.7279549772       21.5253025903      -33.2911891076  TIP3      8350            0.0000000000
     49950      8550  TIP3      H2             17.1783532837       20.4229746432      -34.1998274460  TIP3      8350            0.0000000000
     49951      8551  TIP3      OH2            17.4892839658       21.1181326129      -48.2432098792  TIP3      8351            0.0000000000
     49952      8551  TIP3      H1             17.9143849200       20.4415386231      -48.7835570216  TIP3      8351            0.0000000000
     49953      8551  TIP3      H2             18.2465995015       21.7220590929      -48.0832074305  TIP3      8351            0.0000000000
     49954      8552  TIP3      OH2            -0.1871343219       20.8081023993      -45.1827669229  TIP3      8352            0.0000000000
     49955      8552  TIP3      H1             -1.1160027376       21.0667294793      -45.0771760923  TIP3      8352            0.0000000000
     49956      8552  TIP3      H2              0.0227195722       21.1667637299      -46.0693562917  TIP3      8352            0.0000000000
     49957      8553  TIP3      OH2            14.4513777928       35.7095435216      -43.6151287114  TIP3      8353            0.0000000000
     49958      8553  TIP3      H1             15.2982517882       35.6333413603      -44.1030140530  TIP3      8353            0.0000000000
     49959      8553  TIP3      H2             14.7430752700       36.2058401777      -42.8288771285  TIP3      8353            0.0000000000
     49960      8554  TIP3      OH2            -0.1294591437       19.4143428268      -36.8734126120  TIP3      8354            0.0000000000
     49961      8554  TIP3      H1             -0.8443783233       19.1445098977      -36.2704527894  TIP3      8354            0.0000000000
     49962      8554  TIP3      H2             -0.5447117439       20.0989550934      -37.4230117061  TIP3      8354            0.0000000000
     49963      8555  TIP3      OH2             2.1732761889       32.3751333900      -32.8505646385  TIP3      8355            0.0000000000
     49964      8555  TIP3      H1              1.3479357214       32.3639236688      -33.3629621639  TIP3      8355            0.0000000000
     49965      8555  TIP3      H2              1.8572536715       32.4283632247      -31.9473238410  TIP3      8355            0.0000000000
     49966      8556  TIP3      OH2             4.8901494979       33.7641463197      -36.5486306209  TIP3      8356            0.0000000000
     49967      8556  TIP3      H1              4.7908335914       34.7454432049      -36.6470431565  TIP3      8356            0.0000000000
     49968      8556  TIP3      H2              5.8624602238       33.7610041813      -36.4186736040  TIP3      8356            0.0000000000
     49969      8557  TIP3      OH2             9.4484585444       34.8828043322      -33.6982151407  TIP3      8357            0.0000000000
     49970      8557  TIP3      H1              9.3660552500       34.5607415230      -32.7657930908  TIP3      8357            0.0000000000
     49971      8557  TIP3      H2             10.2161189678       35.4789481341      -33.6158698014  TIP3      8357            0.0000000000
     49972      8558  TIP3      OH2            11.6336849245       36.6566289215      -34.2182176825  TIP3      8358            0.0000000000
     49973      8558  TIP3      H1             12.2720111424       35.9650730807      -34.4383954834  TIP3      8358            0.0000000000
     49974      8558  TIP3      H2             11.8402022490       36.7773802573      -33.2614689651  TIP3      8358            0.0000000000
     49975      8559  TIP3      OH2            16.5583135584       18.8840955803      -35.1693648427  TIP3      8359            0.0000000000
     49976      8559  TIP3      H1             15.7715725392       19.1898137880      -35.6486696385  TIP3      8359            0.0000000000
     49977      8559  TIP3      H2             16.6888369783       17.9939173438      -35.5691424166  TIP3      8359            0.0000000000
     49978      8560  TIP3      OH2             2.1650666235       36.9866374473      -36.6089585914  TIP3      8360            0.0000000000
     49979      8560  TIP3      H1              1.2623301020       37.1339261437      -36.9607733244  TIP3      8360            0.0000000000
     49980      8560  TIP3      H2              2.0169262112       37.1186497187      -35.6578515491  TIP3      8360            0.0000000000
     49981      8561  TIP3      OH2             4.7208607610       36.3411625928      -37.0695010718  TIP3      8361            0.0000000000
     49982      8561  TIP3      H1              3.7949731882       36.6168804120      -36.8311413869  TIP3      8361            0.0000000000
     49983      8561  TIP3      H2              4.7548781302       36.6088673882      -38.0071140944  TIP3      8361            0.0000000000
     49984      8562  TIP3      OH2             9.6909725558       36.2438760960      -38.4809573766  TIP3      8362            0.0000000000
     49985      8562  TIP3      H1              8.9247894547       36.3832791927      -39.0785129590  TIP3      8362            0.0000000000
     49986      8562  TIP3      H2              9.6757180783       37.0662279524      -37.9620156138  TIP3      8362            0.0000000000
     49987      8563  TIP3      OH2            11.4951341374       34.8303431963      -36.9626231374  TIP3      8363            0.0000000000
     49988      8563  TIP3      H1             10.8020980260       35.3947434661      -37.3565428441  TIP3      8363            0.0000000000
     49989      8563  TIP3      H2             12.2589855198       35.4031831585      -37.1321055531  TIP3      8363            0.0000000000
     49990      8564  TIP3      OH2            13.8160916686       36.9528179415      -37.0689490985  TIP3      8364            0.0000000000
     49991      8564  TIP3      H1             13.5965055421       37.8759052739      -37.2626300888  TIP3      8364            0.0000000000
     49992      8564  TIP3      H2             14.2543474436       36.6491894798      -37.9073434748  TIP3      8364            0.0000000000
     49993      8565  TIP3      OH2             1.8861124611       34.9771287571      -39.4488472157  TIP3      8365            0.0000000000
     49994      8565  TIP3      H1              1.8074028722       34.5125957998      -38.5805146301  TIP3      8365            0.0000000000
     49995      8565  TIP3      H2              2.7180050223       34.6174865237      -39.8227037571  TIP3      8365            0.0000000000
     49996      8566  TIP3      OH2             4.0382539045       34.2587583635      -40.7694301446  TIP3      8366            0.0000000000
     49997      8566  TIP3      H1              3.9705295880       33.2886974646      -40.6258963699  TIP3      8366            0.0000000000
     49998      8566  TIP3      H2              4.8879045822       34.4319043239      -40.3107192804  TIP3      8366            0.0000000000
     49999      8567  TIP3      OH2             6.3389831883       34.3413583265      -39.5270731828  TIP3      8367            0.0000000000
     50000      8567  TIP3      H1              6.5610533237       33.4028830236      -39.6882179633  TIP3      8367            0.0000000000
     50001      8567  TIP3      H2              6.5496230670       34.4663980009      -38.5844082772  TIP3      8367            0.0000000000
     50002      8568  TIP3      OH2             9.9513072164       20.1687168795      -40.6998601391  TIP3      8368            0.0000000000
     50003      8568  TIP3      H1              9.1479847949       19.7720485450      -40.3207120100  TIP3      8368            0.0000000000
     50004      8568  TIP3      H2             10.0615594603       19.6354646642      -41.4930276288  TIP3      8368            0.0000000000
     50005      8569  TIP3      OH2            15.1668080362       18.4244894458      -40.9838367580  TIP3      8369            0.0000000000
     50006      8569  TIP3      H1             15.8553241618       18.9898987055      -41.4402170439  TIP3      8369            0.0000000000
     50007      8569  TIP3      H2             14.3439143032       18.7003024145      -41.4466394967  TIP3      8369            0.0000000000
     50008      8570  TIP3      OH2            16.8435241741       19.6722637756      -42.6113415531  TIP3      8370            0.0000000000
     50009      8570  TIP3      H1             17.4696610957       19.0707000108      -43.0769160337  TIP3      8370            0.0000000000
     50010      8570  TIP3      H2             17.4508112113       20.4417324398      -42.4467917279  TIP3      8370            0.0000000000
     50011      8571  TIP3      OH2             2.3243536520       18.7833509081      -42.8517640205  TIP3      8371            0.0000000000
     50012      8571  TIP3      H1              1.4637975603       18.7688197102      -43.3078627096  TIP3      8371            0.0000000000
     50013      8571  TIP3      H2              2.6996852663       17.9179234216      -43.1235054202  TIP3      8371            0.0000000000
     50014      8572  TIP3      OH2             1.0703492768       18.6870724616      -47.2659738740  TIP3      8372            0.0000000000
     50015      8572  TIP3      H1              1.6502464612       19.3487826107      -47.7275341125  TIP3      8372            0.0000000000
     50016      8572  TIP3      H2              0.6812738254       19.2284474335      -46.5597029833  TIP3      8372            0.0000000000
     50017      8573  TIP3      OH2             6.5487928296       18.5254130212      -43.0610968411  TIP3      8373            0.0000000000
     50018      8573  TIP3      H1              7.3796277513       18.6646529933      -43.5332609072  TIP3      8373            0.0000000000
     50019      8573  TIP3      H2              6.6238769369       19.1050609047      -42.2876988266  TIP3      8373            0.0000000000
     50020      8574  TIP3      OH2            12.6962429642       18.9319515502      -42.0337121551  TIP3      8374            0.0000000000
     50021      8574  TIP3      H1             12.1674828275       19.0140199606      -42.8326768104  TIP3      8374            0.0000000000
     50022      8574  TIP3      H2             12.2319118248       18.1966221321      -41.5710064688  TIP3      8374            0.0000000000
     50023      8575  TIP3      OH2            14.0154530609       18.7920498525      -45.8223616186  TIP3      8375            0.0000000000
     50024      8575  TIP3      H1             13.2218709109       19.3246072638      -45.9555019617  TIP3      8375            0.0000000000
     50025      8575  TIP3      H2             13.6719852626       18.0896213462      -45.2345124780  TIP3      8375            0.0000000000
     50026      8576  TIP3      OH2             0.9694618323       34.6670906280      -46.0475019234  TIP3      8376            0.0000000000
     50027      8576  TIP3      H1              0.0338395544       34.5675369019      -46.2829092602  TIP3      8376            0.0000000000
     50028      8576  TIP3      H2              1.1946480677       35.5059532462      -46.4963212439  TIP3      8376            0.0000000000
     50029      8577  TIP3      OH2             2.7384974254       20.1462136124      -48.6717329748  TIP3      8377            0.0000000000
     50030      8577  TIP3      H1              3.4851795604       19.5367216225      -48.8136071743  TIP3      8377            0.0000000000
     50031      8577  TIP3      H2              3.1622308636       20.9728037431      -48.4087121161  TIP3      8377            0.0000000000
     50032      8578  TIP3      OH2             8.2956017568       20.8281598838      -46.4385773915  TIP3      8378            0.0000000000
     50033      8578  TIP3      H1              8.6150429989       20.2460974695      -45.7298504432  TIP3      8378            0.0000000000
     50034      8578  TIP3      H2              8.3210444923       21.6885986922      -45.9746833448  TIP3      8378            0.0000000000
     50035      8579  TIP3      OH2             9.9856678191       36.1852085447      -48.1642630851  TIP3      8379            0.0000000000
     50036      8579  TIP3      H1             10.9632628303       36.2084181376      -48.0425657709  TIP3      8379            0.0000000000
     50037      8579  TIP3      H2              9.9500756350       35.7174583896      -49.0212903977  TIP3      8379            0.0000000000
     50038      8580  TIP3      OH2            16.5217066134       35.3280512934      -45.0935017439  TIP3      8380            0.0000000000
     50039      8580  TIP3      H1             16.3169805663       34.4309078443      -45.4515478354  TIP3      8380            0.0000000000
     50040      8580  TIP3      H2             16.4389399411       35.8733529092      -45.9001153602  TIP3      8380            0.0000000000
     50041      8581  TIP3      OH2             2.0859993994       19.7051459222      -33.4847315260  TIP3      8381            0.0000000000
     50042      8581  TIP3      H1              1.5838431240       18.8681991283      -33.4633194418  TIP3      8381            0.0000000000
     50043      8581  TIP3      H2              2.7443091997       19.5236385426      -32.7707327792  TIP3      8381            0.0000000000
     50044      8582  TIP3      OH2             3.9953894669       18.9276258415      -31.6784166888  TIP3      8382            0.0000000000
     50045      8582  TIP3      H1              4.9232543960       18.7790623269      -31.9244266319  TIP3      8382            0.0000000000
     50046      8582  TIP3      H2              3.7482828280       18.0307080753      -31.3599521446  TIP3      8382            0.0000000000
     50047      8583  TIP3      OH2             3.1924167953       36.4037251632      -49.1365307076  TIP3      8383            0.0000000000
     50048      8583  TIP3      H1              2.5807116157       36.5200294839      -48.3897670964  TIP3      8383            0.0000000000
     50049      8583  TIP3      H2              3.6933936097       35.6523894317      -48.8000050989  TIP3      8383            0.0000000000
     50050      8584  TIP3      OH2            12.5150594529       18.2002709928      -31.8566301158  TIP3      8384            0.0000000000
     50051      8584  TIP3      H1             12.5695873074       17.6863599142      -31.0156964110  TIP3      8384            0.0000000000
     50052      8584  TIP3      H2             13.4602547856       18.1905508950      -32.1092304665  TIP3      8384            0.0000000000
     50053      8585  TIP3      OH2            15.5953066522       34.3082608503      -33.0991509888  TIP3      8385            0.0000000000
     50054      8585  TIP3      H1             15.0653218245       34.3678449776      -33.9341651451  TIP3      8385            0.0000000000
     50055      8585  TIP3      H2             15.9442034504       35.2092840904      -33.0749543868  TIP3      8385            0.0000000000
     50056      8586  TIP3      OH2            30.2823911996       28.2124822006      -43.0683425721  TIP3      8386            0.0000000000
     50057      8586  TIP3      H1             30.0647112435       29.0573002076      -42.6417271271  TIP3      8386            0.0000000000
     50058      8586  TIP3      H2             29.5843690791       28.1906497110      -43.7476442052  TIP3      8386            0.0000000000
     50059      8587  TIP3      OH2            28.9238225292       27.0559990921      -39.8440924152  TIP3      8387            0.0000000000
     50060      8587  TIP3      H1             29.1648391223       26.6502371829      -38.9802658378  TIP3      8387            0.0000000000
     50061      8587  TIP3      H2             28.1654894097       26.5102087384      -40.1285152928  TIP3      8387            0.0000000000
     50062      8588  TIP3      OH2            21.2246119206       26.9870063625      -38.3476195594  TIP3      8388            0.0000000000
     50063      8588  TIP3      H1             21.4195161698       26.2656805692      -37.7312970519  TIP3      8388            0.0000000000
     50064      8588  TIP3      H2             21.8225465064       27.6697862851      -38.0203159544  TIP3      8388            0.0000000000
     50065      8589  TIP3      OH2            32.8492085130       30.3748044329      -41.0414669989  TIP3      8389            0.0000000000
     50066      8589  TIP3      H1             32.7069974983       29.5640524087      -40.5136464971  TIP3      8389            0.0000000000
     50067      8589  TIP3      H2             32.7335866662       31.0506214894      -40.3611848550  TIP3      8389            0.0000000000
     50068      8590  TIP3      OH2            22.3196290839       31.6304732617      -39.8434918692  TIP3      8390            0.0000000000
     50069      8590  TIP3      H1             22.0199234465       30.7364803858      -40.1251151737  TIP3      8390            0.0000000000
     50070      8590  TIP3      H2             23.2756455072       31.4548758260      -39.9227367174  TIP3      8390            0.0000000000
     50071      8591  TIP3      OH2            19.0168757942       25.0293135831      -44.2276330316  TIP3      8391            0.0000000000
     50072      8591  TIP3      H1             18.6356856694       25.9056642651      -44.0407732177  TIP3      8391            0.0000000000
     50073      8591  TIP3      H2             18.5134072266       24.7735677921      -45.0212902837  TIP3      8391            0.0000000000
     50074      8592  TIP3      OH2            19.5329687474       27.3684780332      -41.6829959365  TIP3      8392            0.0000000000
     50075      8592  TIP3      H1             19.8865294306       26.4556939163      -41.5448389183  TIP3      8392            0.0000000000
     50076      8592  TIP3      H2             20.1691321691       27.7632171253      -42.2963973566  TIP3      8392            0.0000000000
     50077      8593  TIP3      OH2            29.7413367557       35.5115877062      -40.9043562253  TIP3      8393            0.0000000000
     50078      8593  TIP3      H1             30.3761933378       34.9816016761      -41.4367255873  TIP3      8393            0.0000000000
     50079      8593  TIP3      H2             29.4388886113       34.7992716831      -40.3245103721  TIP3      8393            0.0000000000
     50080      8594  TIP3      OH2            27.4555915601       29.7872174021      -39.0276556193  TIP3      8394            0.0000000000
     50081      8594  TIP3      H1             27.7657705498       29.0854115757      -39.6206688166  TIP3      8394            0.0000000000
     50082      8594  TIP3      H2             28.2925932268       30.0562936616      -38.5905688958  TIP3      8394            0.0000000000
     50083      8595  TIP3      OH2            35.8689341732       21.8614809299      -39.0875667863  TIP3      8395            0.0000000000
     50084      8595  TIP3      H1             36.1225925877       22.2622016691      -38.2350715004  TIP3      8395            0.0000000000
     50085      8595  TIP3      H2             36.6831526768       21.9522142726      -39.6085061051  TIP3      8395            0.0000000000
     50086      8596  TIP3      OH2            30.7635537877       24.1260181097      -38.7502128388  TIP3      8396            0.0000000000
     50087      8596  TIP3      H1             31.2446014433       23.3034258625      -38.5500381770  TIP3      8396            0.0000000000
     50088      8596  TIP3      H2             30.6545138985       24.0172511191      -39.7108332338  TIP3      8396            0.0000000000
     50089      8597  TIP3      OH2            23.8100485654       22.0936740714      -42.0502496322  TIP3      8397            0.0000000000
     50090      8597  TIP3      H1             23.9414210979       22.8950313714      -42.6061175156  TIP3      8397            0.0000000000
     50091      8597  TIP3      H2             23.3608148364       21.5147079673      -42.6954053130  TIP3      8397            0.0000000000
     50092      8598  TIP3      OH2            31.6695890338       22.3300072128      -43.4931098432  TIP3      8398            0.0000000000
     50093      8598  TIP3      H1             32.2036810849       22.1711779405      -42.6729738027  TIP3      8398            0.0000000000
     50094      8598  TIP3      H2             32.1358097443       23.0795730570      -43.8763370904  TIP3      8398            0.0000000000
     50095      8599  TIP3      OH2            20.2110638846       24.8285288216      -41.0547671670  TIP3      8399            0.0000000000
     50096      8599  TIP3      H1             20.8818554633       24.4011838662      -40.4918303071  TIP3      8399            0.0000000000
     50097      8599  TIP3      H2             20.4700593599       24.4718312733      -41.9225016811  TIP3      8399            0.0000000000
     50098      8600  TIP3      OH2            25.3857803289       26.1978784671      -41.5697939424  TIP3      8400            0.0000000000
     50099      8600  TIP3      H1             26.0901686979       25.5935553398      -41.2548235027  TIP3      8400            0.0000000000
     50100      8600  TIP3      H2             25.0014811766       25.6466640284      -42.2721745790  TIP3      8400            0.0000000000
     50101      8601  TIP3      OH2            36.1308313163       22.4651841058      -36.2897589870  TIP3      8401            0.0000000000
     50102      8601  TIP3      H1             35.6463325747       23.3007967291      -36.4920072413  TIP3      8401            0.0000000000
     50103      8601  TIP3      H2             36.6699066877       22.7238539589      -35.5261065202  TIP3      8401            0.0000000000
     50104      8602  TIP3      OH2            22.7817368461       21.2341097637      -37.7342124905  TIP3      8402            0.0000000000
     50105      8602  TIP3      H1             22.3943220224       21.7727301585      -38.4494550149  TIP3      8402            0.0000000000
     50106      8602  TIP3      H2             22.1493144276       21.4621938968      -37.0096297140  TIP3      8402            0.0000000000
     50107      8603  TIP3      OH2            29.5862566350       30.7964414827      -44.3545345185  TIP3      8403            0.0000000000
     50108      8603  TIP3      H1             29.4896406483       30.8649762368      -45.3263166401  TIP3      8403            0.0000000000
     50109      8603  TIP3      H2             29.3074784489       31.6805544724      -44.0765845728  TIP3      8403            0.0000000000
     50110      8604  TIP3      OH2            25.0515005572       28.9462540568      -37.9848676889  TIP3      8404            0.0000000000
     50111      8604  TIP3      H1             24.5558311975       29.6950312910      -37.5989102505  TIP3      8404            0.0000000000
     50112      8604  TIP3      H2             25.7802462477       29.4222258415      -38.4422100376  TIP3      8404            0.0000000000
     50113      8605  TIP3      OH2            33.0922709215       22.0856019557      -41.1879671656  TIP3      8405            0.0000000000
     50114      8605  TIP3      H1             32.7760344656       21.3302586943      -40.6702219604  TIP3      8405            0.0000000000
     50115      8605  TIP3      H2             33.9016938963       22.3551602737      -40.7162217992  TIP3      8405            0.0000000000
     50116      8606  TIP3      OH2            22.3385556087       23.1734352153      -39.8186180962  TIP3      8406            0.0000000000
     50117      8606  TIP3      H1             22.9660188528       23.8147010753      -39.4138938909  TIP3      8406            0.0000000000
     50118      8606  TIP3      H2             22.8527935250       22.8833769217      -40.6080866398  TIP3      8406            0.0000000000
     50119      8607  TIP3      OH2            23.8199077613       31.0616878687      -36.7853157850  TIP3      8407            0.0000000000
     50120      8607  TIP3      H1             23.6771192090       31.9549652958      -37.1507249296  TIP3      8407            0.0000000000
     50121      8607  TIP3      H2             22.9413227769       30.8933311962      -36.3737708526  TIP3      8407            0.0000000000
     50122      8608  TIP3      OH2            19.5608495708       30.3580578724      -46.0178565354  TIP3      8408            0.0000000000
     50123      8608  TIP3      H1             19.5971254294       30.9469428235      -46.8103784311  TIP3      8408            0.0000000000
     50124      8608  TIP3      H2             19.6607586593       31.0078418876      -45.2935401176  TIP3      8408            0.0000000000
     50125      8609  TIP3      OH2            33.2327845038       32.6607712214      -38.7311511906  TIP3      8409            0.0000000000
     50126      8609  TIP3      H1             32.2592015871       32.6582231512      -38.8066944798  TIP3      8409            0.0000000000
     50127      8609  TIP3      H2             33.4062898849       33.5823312120      -39.0285989761  TIP3      8409            0.0000000000
     50128      8610  TIP3      OH2            33.6037730678       20.9313761161      -37.9843125179  TIP3      8410            0.0000000000
     50129      8610  TIP3      H1             32.7944015142       20.9977107158      -38.5303842343  TIP3      8410            0.0000000000
     50130      8610  TIP3      H2             34.2589786532       21.4405073898      -38.5120086883  TIP3      8410            0.0000000000
     50131      8611  TIP3      OH2            26.3077946362       18.7260977875      -40.5175779112  TIP3      8411            0.0000000000
     50132      8611  TIP3      H1             26.0496960707       17.8130642640      -40.3270282019  TIP3      8411            0.0000000000
     50133      8611  TIP3      H2             25.4664495552       19.1867980479      -40.2429115166  TIP3      8411            0.0000000000
     50134      8612  TIP3      OH2            31.4338511643       34.0562859532      -42.3480078797  TIP3      8412            0.0000000000
     50135      8612  TIP3      H1             31.7438738517       33.1942352729      -42.7312448536  TIP3      8412            0.0000000000
     50136      8612  TIP3      H2             32.1900928536       34.6247206820      -42.6120049951  TIP3      8412            0.0000000000
     50137      8613  TIP3      OH2            32.3741059165       31.8245969600      -43.6247407586  TIP3      8413            0.0000000000
     50138      8613  TIP3      H1             32.3167307656       31.1841239913      -44.3508674763  TIP3      8413            0.0000000000
     50139      8613  TIP3      H2             32.7153916477       31.2701340819      -42.8867550043  TIP3      8413            0.0000000000
     50140      8614  TIP3      OH2            34.0442707972       30.4068547252      -35.3910475547  TIP3      8414            0.0000000000
     50141      8614  TIP3      H1             34.1551831553       29.7573198884      -36.1248910816  TIP3      8414            0.0000000000
     50142      8614  TIP3      H2             34.2721087065       31.2288591536      -35.8584948838  TIP3      8414            0.0000000000
     50143      8615  TIP3      OH2            28.8337015864       27.5252638934      -45.6655683285  TIP3      8415            0.0000000000
     50144      8615  TIP3      H1             28.4389347309       28.4060564351      -45.8352376098  TIP3      8415            0.0000000000
     50145      8615  TIP3      H2             29.6421580302       27.5591215550      -46.2126845402  TIP3      8415            0.0000000000
     50146      8616  TIP3      OH2            29.2475590223       26.1864445980      -48.6481281971  TIP3      8416            0.0000000000
     50147      8616  TIP3      H1             29.9457499403       26.5131856528      -48.0304916238  TIP3      8416            0.0000000000
     50148      8616  TIP3      H2             29.6298179862       25.3078541668      -48.8647921136  TIP3      8416            0.0000000000
     50149      8617  TIP3      OH2            35.7907206667       26.6869548192      -37.5523180076  TIP3      8417            0.0000000000
     50150      8617  TIP3      H1             35.1733566202       27.4195104568      -37.7859875336  TIP3      8417            0.0000000000
     50151      8617  TIP3      H2             36.5356690199       26.9075756494      -38.1577398414  TIP3      8417            0.0000000000
     50152      8618  TIP3      OH2            32.4907580291       27.7440845166      -44.6251661129  TIP3      8418            0.0000000000
     50153      8618  TIP3      H1             31.7498728321       28.0273270458      -44.0437180989  TIP3      8418            0.0000000000
     50154      8618  TIP3      H2             33.0346847858       27.2447740837      -43.9755699552  TIP3      8418            0.0000000000
     50155      8619  TIP3      OH2            32.2051489735       25.8313991588      -35.7382930942  TIP3      8419            0.0000000000
     50156      8619  TIP3      H1             31.9054596769       26.5536645231      -35.1682112722  TIP3      8419            0.0000000000
     50157      8619  TIP3      H2             31.5991742909       25.9494629731      -36.4959737213  TIP3      8419            0.0000000000
     50158      8620  TIP3      OH2            23.8088657601       28.2035660283      -42.8307210497  TIP3      8420            0.0000000000
     50159      8620  TIP3      H1             23.5055205601       28.0206903125      -43.7457452043  TIP3      8420            0.0000000000
     50160      8620  TIP3      H2             24.4452745320       27.4720928108      -42.6726953420  TIP3      8420            0.0000000000
     50161      8621  TIP3      OH2            25.2500578008       31.5902988506      -40.2200369579  TIP3      8421            0.0000000000
     50162      8621  TIP3      H1             25.3542453471       31.5965100490      -41.1888901292  TIP3      8421            0.0000000000
     50163      8621  TIP3      H2             26.0434484631       31.1225143919      -39.9091531607  TIP3      8421            0.0000000000
     50164      8622  TIP3      OH2            24.1110211467       26.8238967377      -39.1752065562  TIP3      8422            0.0000000000
     50165      8622  TIP3      H1             24.5317363269       26.8240875116      -40.0637789050  TIP3      8422            0.0000000000
     50166      8622  TIP3      H2             24.5761701329       27.5603644338      -38.7192799355  TIP3      8422            0.0000000000
     50167      8623  TIP3      OH2            30.5484452287       32.6432813272      -38.4946559422  TIP3      8423            0.0000000000
     50168      8623  TIP3      H1             30.2084300202       33.3198774152      -37.8704344189  TIP3      8423            0.0000000000
     50169      8623  TIP3      H2             30.4065462256       31.8327395928      -37.9645905771  TIP3      8423            0.0000000000
     50170      8624  TIP3      OH2            25.3973188012       31.4456232881      -34.5039337842  TIP3      8424            0.0000000000
     50171      8624  TIP3      H1             24.7498872072       32.0599426832      -34.0941444559  TIP3      8424            0.0000000000
     50172      8624  TIP3      H2             25.0163822421       31.3488085021      -35.3970872110  TIP3      8424            0.0000000000
     50173      8625  TIP3      OH2            31.1440722723       27.0361108588      -46.9787254293  TIP3      8425            0.0000000000
     50174      8625  TIP3      H1             31.6900936992       27.2527908800      -46.1871639031  TIP3      8425            0.0000000000
     50175      8625  TIP3      H2             31.6741118087       27.4889778633      -47.6789932602  TIP3      8425            0.0000000000
     50176      8626  TIP3      OH2            22.3299123364       27.5787833780      -35.5389716559  TIP3      8426            0.0000000000
     50177      8626  TIP3      H1             22.4341951152       28.4806560805      -35.1935576164  TIP3      8426            0.0000000000
     50178      8626  TIP3      H2             21.6319418099       27.2420350928      -34.9500014627  TIP3      8426            0.0000000000
     50179      8627  TIP3      OH2            28.8458734830       33.6702815068      -44.2800037318  TIP3      8427            0.0000000000
     50180      8627  TIP3      H1             29.2302163606       33.7244917587      -43.3983588022  TIP3      8427            0.0000000000
     50181      8627  TIP3      H2             28.2071202909       34.3985192977      -44.2814162008  TIP3      8427            0.0000000000
     50182      8628  TIP3      OH2            23.3679142956       33.2467775151      -33.8569351242  TIP3      8428            0.0000000000
     50183      8628  TIP3      H1             23.2641182585       33.3037033171      -34.8273338956  TIP3      8428            0.0000000000
     50184      8628  TIP3      H2             22.5252786682       32.8381392429      -33.5712550108  TIP3      8428            0.0000000000
     50185      8629  TIP3      OH2            34.8378687872       18.2579832191      -47.5481823341  TIP3      8429            0.0000000000
     50186      8629  TIP3      H1             33.8683588055       18.3646636929      -47.4305422865  TIP3      8429            0.0000000000
     50187      8629  TIP3      H2             35.1722222964       19.0828528576      -47.1897945168  TIP3      8429            0.0000000000
     50188      8630  TIP3      OH2            22.8685695749       27.1227459812      -45.1872250394  TIP3      8430            0.0000000000
     50189      8630  TIP3      H1             22.5104240662       27.8848083314      -45.6942998766  TIP3      8430            0.0000000000
     50190      8630  TIP3      H2             22.4319539094       26.3736618035      -45.6192407721  TIP3      8430            0.0000000000
     50191      8631  TIP3      OH2            36.0616279924       32.6361059885      -48.2908668914  TIP3      8431            0.0000000000
     50192      8631  TIP3      H1             36.0776793435       33.6225867986      -48.2723710782  TIP3      8431            0.0000000000
     50193      8631  TIP3      H2             36.9899266956       32.5113333955      -48.5556783190  TIP3      8431            0.0000000000
     50194      8632  TIP3      OH2            19.2514927865       29.8235410482      -36.2936836042  TIP3      8432            0.0000000000
     50195      8632  TIP3      H1             18.7485266205       29.7919756182      -37.1187958580  TIP3      8432            0.0000000000
     50196      8632  TIP3      H2             19.6131512360       28.9105060632      -36.2802315367  TIP3      8432            0.0000000000
     50197      8633  TIP3      OH2            19.0542954811       32.3060083568      -39.8593630410  TIP3      8433            0.0000000000
     50198      8633  TIP3      H1             20.0185989976       32.2323767649      -39.8148559561  TIP3      8433            0.0000000000
     50199      8633  TIP3      H2             18.9143851919       33.1221987518      -39.3615620096  TIP3      8433            0.0000000000
     50200      8634  TIP3      OH2            36.9020729277       33.0716534836      -33.9737584406  TIP3      8434            0.0000000000
     50201      8634  TIP3      H1             36.7305755025       32.1117697332      -33.9906409195  TIP3      8434            0.0000000000
     50202      8634  TIP3      H2             36.1482438734       33.3480075752      -33.4064806707  TIP3      8434            0.0000000000
     50203      8635  TIP3      OH2            27.9522756278       32.6005929201      -35.2945531663  TIP3      8435            0.0000000000
     50204      8635  TIP3      H1             28.0798675738       33.3902247563      -34.7210744048  TIP3      8435            0.0000000000
     50205      8635  TIP3      H2             27.1057518664       32.2341577339      -34.9673755627  TIP3      8435            0.0000000000
     50206      8636  TIP3      OH2            28.6759757065       36.6715614639      -45.1084900969  TIP3      8436            0.0000000000
     50207      8636  TIP3      H1             28.5191253168       36.7142330752      -46.0617810765  TIP3      8436            0.0000000000
     50208      8636  TIP3      H2             28.2504324693       37.4726052536      -44.7878282102  TIP3      8436            0.0000000000
     50209      8637  TIP3      OH2            22.1457961894       34.8013611044      -43.2313688100  TIP3      8437            0.0000000000
     50210      8637  TIP3      H1             22.5044534365       34.8744446796      -42.3197121458  TIP3      8437            0.0000000000
     50211      8637  TIP3      H2             21.4591649030       34.1294817983      -43.0563887203  TIP3      8437            0.0000000000
     50212      8638  TIP3      OH2            31.2359616670       36.0254747059      -47.7680104127  TIP3      8438            0.0000000000
     50213      8638  TIP3      H1             31.6152079066       35.4519106586      -48.4740602615  TIP3      8438            0.0000000000
     50214      8638  TIP3      H2             31.4502408753       35.4959672139      -46.9705941682  TIP3      8438            0.0000000000
     50215      8639  TIP3      OH2            31.1073021267       35.4133607250      -45.2126865478  TIP3      8439            0.0000000000
     50216      8639  TIP3      H1             30.1786556324       35.6964870773      -45.0527794656  TIP3      8439            0.0000000000
     50217      8639  TIP3      H2             31.2439218761       34.7237452635      -44.5436033518  TIP3      8439            0.0000000000
     50218      8640  TIP3      OH2            34.0260356245       24.6901583102      -33.5869920797  TIP3      8440            0.0000000000
     50219      8640  TIP3      H1             33.4127302614       24.9006221165      -34.3104640500  TIP3      8440            0.0000000000
     50220      8640  TIP3      H2             34.2105728544       23.7411162864      -33.7335879769  TIP3      8440            0.0000000000
     50221      8641  TIP3      OH2            21.4936875600       30.9582684030      -35.3986540147  TIP3      8441            0.0000000000
     50222      8641  TIP3      H1             21.4251430785       30.6017930048      -34.4875920673  TIP3      8441            0.0000000000
     50223      8641  TIP3      H2             20.5945169667       30.7678116880      -35.7437593090  TIP3      8441            0.0000000000
     50224      8642  TIP3      OH2            24.0624292826       19.7503751564      -39.5963055117  TIP3      8442            0.0000000000
     50225      8642  TIP3      H1             23.1932692746       19.6573439199      -40.0244966391  TIP3      8442            0.0000000000
     50226      8642  TIP3      H2             23.7917698881       20.2439417476      -38.7970775243  TIP3      8442            0.0000000000
     50227      8643  TIP3      OH2            28.8837658225       19.0591758168      -36.2655029427  TIP3      8443            0.0000000000
     50228      8643  TIP3      H1             29.1931942659       18.5918801076      -35.4696129551  TIP3      8443            0.0000000000
     50229      8643  TIP3      H2             27.9020806333       19.0581041697      -36.2012415701  TIP3      8443            0.0000000000
     50230      8644  TIP3      OH2            31.8609739130       22.8122013886      -35.3488162845  TIP3      8444            0.0000000000
     50231      8644  TIP3      H1             31.4048553682       22.5237318129      -34.5274946865  TIP3      8444            0.0000000000
     50232      8644  TIP3      H2             31.8458426317       23.7748449341      -35.2539288954  TIP3      8444            0.0000000000
     50233      8645  TIP3      OH2            32.6761511539       28.1367423772      -48.7395771368  TIP3      8445            0.0000000000
     50234      8645  TIP3      H1             32.2776672727       28.2844709782      -49.6296232153  TIP3      8445            0.0000000000
     50235      8645  TIP3      H2             33.5671435748       28.4921771324      -48.8946955143  TIP3      8445            0.0000000000
     50236      8646  TIP3      OH2            28.4323989238       21.9049507266      -48.5685642911  TIP3      8446            0.0000000000
     50237      8646  TIP3      H1             28.0175451805       21.5789137474      -47.7299323734  TIP3      8446            0.0000000000
     50238      8646  TIP3      H2             27.7977395221       21.5468194958      -49.1918570766  TIP3      8446            0.0000000000
     50239      8647  TIP3      OH2            24.1644714892       24.4116910373      -38.1751537981  TIP3      8447            0.0000000000
     50240      8647  TIP3      H1             23.3415039037       24.4135547747      -37.6429887614  TIP3      8447            0.0000000000
     50241      8647  TIP3      H2             24.1496677206       25.3324620008      -38.5327980183  TIP3      8447            0.0000000000
     50242      8648  TIP3      OH2            24.0102837969       24.2637318933      -43.5048655252  TIP3      8448            0.0000000000
     50243      8648  TIP3      H1             23.0581764568       24.4439872834      -43.6399188822  TIP3      8448            0.0000000000
     50244      8648  TIP3      H2             24.3460587208       24.0498182515      -44.4036852311  TIP3      8448            0.0000000000
     50245      8649  TIP3      OH2            29.8834886601       25.5057599756      -44.2405382345  TIP3      8449            0.0000000000
     50246      8649  TIP3      H1             29.4119372431       26.2124464072      -44.7395344709  TIP3      8449            0.0000000000
     50247      8649  TIP3      H2             30.3852188515       25.0992944820      -44.9742561370  TIP3      8449            0.0000000000
     50248      8650  TIP3      OH2            28.3167376284       25.2315460802      -33.2325504229  TIP3      8450            0.0000000000
     50249      8650  TIP3      H1             27.9138088490       24.4170815175      -32.8526215553  TIP3      8450            0.0000000000
     50250      8650  TIP3      H2             29.1148961478       25.3085748139      -32.6615686668  TIP3      8450            0.0000000000
     50251      8651  TIP3      OH2            30.5956023912       24.8831775336      -41.6278049888  TIP3      8451            0.0000000000
     50252      8651  TIP3      H1             30.4274427173       25.7650609834      -42.0330071620  TIP3      8451            0.0000000000
     50253      8651  TIP3      H2             30.5900293444       24.3802335601      -42.4609308145  TIP3      8451            0.0000000000
     50254      8652  TIP3      OH2            21.7740607105       24.4491462313      -36.9244068783  TIP3      8452            0.0000000000
     50255      8652  TIP3      H1             21.9878578208       24.8449799069      -36.0683433804  TIP3      8452            0.0000000000
     50256      8652  TIP3      H2             21.3545011999       23.6116028616      -36.6325989345  TIP3      8452            0.0000000000
     50257      8653  TIP3      OH2            25.0990270651       22.3028967182      -49.3560235532  TIP3      8453            0.0000000000
     50258      8653  TIP3      H1             24.6036699919       21.8964086862      -48.6217928503  TIP3      8453            0.0000000000
     50259      8653  TIP3      H2             24.4903434304       22.2613247907      -50.1037750080  TIP3      8453            0.0000000000
     50260      8654  TIP3      OH2            18.5090078731       21.7519679333      -42.3327274549  TIP3      8454            0.0000000000
     50261      8654  TIP3      H1             19.1363327667       21.8859902676      -41.6051456324  TIP3      8454            0.0000000000
     50262      8654  TIP3      H2             18.9708394966       22.1090207077      -43.1019464031  TIP3      8454            0.0000000000
     50263      8655  TIP3      OH2            19.6049660022       22.4749862812      -47.1440965884  TIP3      8455            0.0000000000
     50264      8655  TIP3      H1             20.3747789894       22.9649586195      -47.5082856701  TIP3      8455            0.0000000000
     50265      8655  TIP3      H2             19.0001968367       23.2380812003      -47.0018293607  TIP3      8455            0.0000000000
     50266      8656  TIP3      OH2            29.8215781977       26.3066901742      -37.4556250975  TIP3      8456            0.0000000000
     50267      8656  TIP3      H1             30.2795735977       25.5743652361      -37.9387205160  TIP3      8456            0.0000000000
     50268      8656  TIP3      H2             29.2782004296       25.7802488311      -36.8355269197  TIP3      8456            0.0000000000
     50269      8657  TIP3      OH2            26.7121541289       21.9955991311      -42.2054475016  TIP3      8457            0.0000000000
     50270      8657  TIP3      H1             25.7546670757       22.0188207336      -42.0117648730  TIP3      8457            0.0000000000
     50271      8657  TIP3      H2             27.0995183816       21.5507842154      -41.4370718481  TIP3      8457            0.0000000000
     50272      8658  TIP3      OH2            21.2094294464       23.7026085037      -43.3514866845  TIP3      8458            0.0000000000
     50273      8658  TIP3      H1             20.4990823575       24.0343475404      -43.9429372376  TIP3      8458            0.0000000000
     50274      8658  TIP3      H2             21.4702128773       22.8284012615      -43.6933125176  TIP3      8458            0.0000000000
     50275      8659  TIP3      OH2            25.2469992317       23.8221405270      -45.9041768003  TIP3      8459            0.0000000000
     50276      8659  TIP3      H1             26.1695441982       24.1035918675      -45.9106649392  TIP3      8459            0.0000000000
     50277      8659  TIP3      H2             24.8006668368       24.4482747313      -46.5147282114  TIP3      8459            0.0000000000
     50278      8660  TIP3      OH2            31.1173763514       21.2815060042      -39.3128042983  TIP3      8460            0.0000000000
     50279      8660  TIP3      H1             30.4714218323       21.2171224325      -38.5840518371  TIP3      8460            0.0000000000
     50280      8660  TIP3      H2             30.5311932753       21.1267263093      -40.0809851287  TIP3      8460            0.0000000000
     50281      8661  TIP3      OH2            23.7330173739       25.0870218193      -47.7554279359  TIP3      8461            0.0000000000
     50282      8661  TIP3      H1             22.8936411679       24.8427168468      -48.1748706110  TIP3      8461            0.0000000000
     50283      8661  TIP3      H2             24.3578133878       25.0507003457      -48.5080696205  TIP3      8461            0.0000000000
     50284      8662  TIP3      OH2            34.0725494868       36.8668773939      -32.7520874989  TIP3      8462            0.0000000000
     50285      8662  TIP3      H1             34.5338238891       37.0747041118      -33.5891179039  TIP3      8462            0.0000000000
     50286      8662  TIP3      H2             34.7369710618       37.1491868936      -32.1002292414  TIP3      8462            0.0000000000
     50287      8663  TIP3      OH2            21.6883999042       29.3123103946      -33.0531961722  TIP3      8463            0.0000000000
     50288      8663  TIP3      H1             22.3561299406       29.5985034967      -32.4017278170  TIP3      8463            0.0000000000
     50289      8663  TIP3      H2             20.9011721379       29.1585794377      -32.4920911832  TIP3      8463            0.0000000000
     50290      8664  TIP3      OH2            27.6804001566       24.7077115400      -40.5204177265  TIP3      8464            0.0000000000
     50291      8664  TIP3      H1             28.4953878498       24.5908020682      -41.0305059514  TIP3      8464            0.0000000000
     50292      8664  TIP3      H2             27.6353326171       23.8776038231      -40.0301748756  TIP3      8464            0.0000000000
     50293      8665  TIP3      OH2            22.2811807443       20.9229136339      -43.9523231389  TIP3      8465            0.0000000000
     50294      8665  TIP3      H1             21.6283530495       20.3385116180      -43.5109855954  TIP3      8465            0.0000000000
     50295      8665  TIP3      H2             22.6795211426       20.2795652921      -44.5578673464  TIP3      8465            0.0000000000
     50296      8666  TIP3      OH2            26.3918053440       23.0364941420      -38.0582730741  TIP3      8466            0.0000000000
     50297      8666  TIP3      H1             25.5903725381       23.6124422433      -38.1019388765  TIP3      8466            0.0000000000
     50298      8666  TIP3      H2             27.0216283942       23.6284434513      -37.6150141861  TIP3      8466            0.0000000000
     50299      8667  TIP3      OH2            27.0997757528       29.6817939032      -46.1629219990  TIP3      8467            0.0000000000
     50300      8667  TIP3      H1             26.3843261890       29.1005112186      -46.4979736746  TIP3      8467            0.0000000000
     50301      8667  TIP3      H2             26.7271447380       29.8864340824      -45.2727946044  TIP3      8467            0.0000000000
     50302      8668  TIP3      OH2            34.1769020427       28.8516758296      -37.5456144084  TIP3      8468            0.0000000000
     50303      8668  TIP3      H1             34.6295901050       29.2588063870      -38.3115394077  TIP3      8468            0.0000000000
     50304      8668  TIP3      H2             33.3043416023       28.6648990745      -37.9237957028  TIP3      8468            0.0000000000
     50305      8669  TIP3      OH2            30.9438838258       22.3844227429      -47.9790598781  TIP3      8469            0.0000000000
     50306      8669  TIP3      H1             29.9771907796       22.2778357465      -48.1323448330  TIP3      8469            0.0000000000
     50307      8669  TIP3      H2             30.9721908218       23.3047031204      -47.6513249259  TIP3      8469            0.0000000000
     50308      8670  TIP3      OH2            28.1243391148       29.6954324782      -34.7301705482  TIP3      8470            0.0000000000
     50309      8670  TIP3      H1             28.2340145252       29.4219278357      -33.7997766986  TIP3      8470            0.0000000000
     50310      8670  TIP3      H2             28.3098322014       30.6498738844      -34.6938478890  TIP3      8470            0.0000000000
     50311      8671  TIP3      OH2            31.4682060701       24.4705978385      -46.3989520435  TIP3      8471            0.0000000000
     50312      8671  TIP3      H1             32.3611488343       24.1743975967      -46.1294591775  TIP3      8471            0.0000000000
     50313      8671  TIP3      H2             31.6351123366       25.3805345998      -46.7288019368  TIP3      8471            0.0000000000
     50314      8672  TIP3      OH2            22.3468244467       29.0881738017      -40.6224482578  TIP3      8472            0.0000000000
     50315      8672  TIP3      H1             22.9018270452       28.8776960328      -41.4058974561  TIP3      8472            0.0000000000
     50316      8672  TIP3      H2             22.4333195776       28.2864758049      -40.0816283197  TIP3      8472            0.0000000000
     50317      8673  TIP3      OH2            29.3515232905       31.0393994078      -47.0981040558  TIP3      8473            0.0000000000
     50318      8673  TIP3      H1             29.0609414733       31.9762582652      -47.0121936713  TIP3      8473            0.0000000000
     50319      8673  TIP3      H2             28.5122211087       30.5455015811      -47.0192041596  TIP3      8473            0.0000000000
     50320      8674  TIP3      OH2            19.2762988754       27.1633789510      -35.3028978964  TIP3      8474            0.0000000000
     50321      8674  TIP3      H1             19.1187661010       26.6232018244      -34.5083403448  TIP3      8474            0.0000000000
     50322      8674  TIP3      H2             18.6921586309       26.7479173287      -35.9682291894  TIP3      8474            0.0000000000
     50323      8675  TIP3      OH2            26.0965756452       26.7222256229      -33.3282595250  TIP3      8475            0.0000000000
     50324      8675  TIP3      H1             25.6980237476       26.1487730813      -33.9997219837  TIP3      8475            0.0000000000
     50325      8675  TIP3      H2             26.9935758861       26.3136492988      -33.2903100922  TIP3      8475            0.0000000000
     50326      8676  TIP3      OH2            31.0522937106       32.0511546563      -34.8028689055  TIP3      8476            0.0000000000
     50327      8676  TIP3      H1             30.2352333998       32.2868103877      -35.2548887580  TIP3      8476            0.0000000000
     50328      8676  TIP3      H2             30.8857444552       32.4574720577      -33.9225401475  TIP3      8476            0.0000000000
     50329      8677  TIP3      OH2            36.3482310997       24.0499267836      -46.6206796893  TIP3      8477            0.0000000000
     50330      8677  TIP3      H1             35.6212570928       23.9371410307      -47.2725141445  TIP3      8477            0.0000000000
     50331      8677  TIP3      H2             36.7377281980       24.8408043613      -47.0285427373  TIP3      8477            0.0000000000
     50332      8678  TIP3      OH2            36.3345927007       30.2525921304      -34.1566358731  TIP3      8478            0.0000000000
     50333      8678  TIP3      H1             35.3769728379       30.4733997902      -34.2744872590  TIP3      8478            0.0000000000
     50334      8678  TIP3      H2             36.6142085160       30.1670616900      -35.0951323920  TIP3      8478            0.0000000000
     50335      8679  TIP3      OH2            34.7036830008       33.0786343542      -46.0533553292  TIP3      8479            0.0000000000
     50336      8679  TIP3      H1             33.9966960026       32.4303813191      -45.9322815119  TIP3      8479            0.0000000000
     50337      8679  TIP3      H2             35.1703907278       32.7392009952      -46.8384786250  TIP3      8479            0.0000000000
     50338      8680  TIP3      OH2            32.1482800562       28.2795199591      -39.4788827614  TIP3      8480            0.0000000000
     50339      8680  TIP3      H1             31.2171043855       28.1790402303      -39.7396107387  TIP3      8480            0.0000000000
     50340      8680  TIP3      H2             32.5011604947       27.4903836721      -39.9465381890  TIP3      8480            0.0000000000
     50341      8681  TIP3      OH2            24.4278633359       32.2659803811      -42.8968169288  TIP3      8481            0.0000000000
     50342      8681  TIP3      H1             24.7736584908       33.1594030264      -43.0959517015  TIP3      8481            0.0000000000
     50343      8681  TIP3      H2             23.6347637499       32.2732474813      -43.4572288594  TIP3      8481            0.0000000000
     50344      8682  TIP3      OH2            20.5171006799       27.1202476970      -48.9570691785  TIP3      8482            0.0000000000
     50345      8682  TIP3      H1             21.0147662004       27.7098342659      -48.3535717771  TIP3      8482            0.0000000000
     50346      8682  TIP3      H2             19.6340256333       27.1277429076      -48.5302194220  TIP3      8482            0.0000000000
     50347      8683  TIP3      OH2            25.9210683103       30.0555502478      -43.6493827295  TIP3      8483            0.0000000000
     50348      8683  TIP3      H1             25.4552624046       30.8905353200      -43.4299834759  TIP3      8483            0.0000000000
     50349      8683  TIP3      H2             25.5145018970       29.4315625305      -43.0270097595  TIP3      8483            0.0000000000
     50350      8684  TIP3      OH2            26.3996216232       34.3296504299      -37.0731038005  TIP3      8484            0.0000000000
     50351      8684  TIP3      H1             26.8592631847       35.1884189363      -37.1433262541  TIP3      8484            0.0000000000
     50352      8684  TIP3      H2             27.1549990920       33.7577211469      -36.8468451489  TIP3      8484            0.0000000000
     50353      8685  TIP3      OH2            24.7275917143       34.8094697193      -44.1204610753  TIP3      8485            0.0000000000
     50354      8685  TIP3      H1             23.7895132395       34.9864200302      -43.9070290993  TIP3      8485            0.0000000000
     50355      8685  TIP3      H2             25.1836603992       35.6026434547      -43.7677946210  TIP3      8485            0.0000000000
     50356      8686  TIP3      OH2            29.6074806663       30.0955069356      -37.4471112280  TIP3      8486            0.0000000000
     50357      8686  TIP3      H1             29.1311495192       29.9864870009      -36.5960305510  TIP3      8486            0.0000000000
     50358      8686  TIP3      H2             29.9690476107       29.2021064275      -37.5670225574  TIP3      8486            0.0000000000
     50359      8687  TIP3      OH2            32.2863718368       31.4574877769      -48.5508901377  TIP3      8487            0.0000000000
     50360      8687  TIP3      H1             32.6771195846       30.9820468160      -47.7805411798  TIP3      8487            0.0000000000
     50361      8687  TIP3      H2             31.3504591333       31.2959439602      -48.3383219382  TIP3      8487            0.0000000000
     50362      8688  TIP3      OH2            32.5215075401       34.8135206678      -35.0487802261  TIP3      8488            0.0000000000
     50363      8688  TIP3      H1             31.8560892830       34.1650860595      -35.3724644477  TIP3      8488            0.0000000000
     50364      8688  TIP3      H2             32.6986979652       35.4225553054      -35.7868995635  TIP3      8488            0.0000000000
     50365      8689  TIP3      OH2            36.6795380915       35.2383041680      -48.5506988636  TIP3      8489            0.0000000000
     50366      8689  TIP3      H1             37.2768082206       35.9717941816      -48.7540796912  TIP3      8489            0.0000000000
     50367      8689  TIP3      H2             35.9236509374       35.7458398968      -48.1634871471  TIP3      8489            0.0000000000
     50368      8690  TIP3      OH2            20.9922335130       22.0467625951      -35.7845019157  TIP3      8490            0.0000000000
     50369      8690  TIP3      H1             20.1073658512       22.4475691422      -35.6920493484  TIP3      8490            0.0000000000
     50370      8690  TIP3      H2             20.9967141650       21.3604413600      -35.1027818774  TIP3      8490            0.0000000000
     50371      8691  TIP3      OH2            33.3205005615       30.0035408676      -46.5856843764  TIP3      8491            0.0000000000
     50372      8691  TIP3      H1             32.8608154622       29.2565542722      -46.1596052660  TIP3      8491            0.0000000000
     50373      8691  TIP3      H2             34.2565751556       29.7262975590      -46.4958014725  TIP3      8491            0.0000000000
     50374      8692  TIP3      OH2            20.6383135420       33.5907312511      -37.1625522353  TIP3      8492            0.0000000000
     50375      8692  TIP3      H1             21.1427773393       32.7673804349      -37.1984058175  TIP3      8492            0.0000000000
     50376      8692  TIP3      H2             21.1762781429       34.1067824438      -36.5432667601  TIP3      8492            0.0000000000
     50377      8693  TIP3      OH2            25.0163179439       31.7476873573      -47.5153065587  TIP3      8493            0.0000000000
     50378      8693  TIP3      H1             25.8115468811       31.3011721375      -47.1949000464  TIP3      8493            0.0000000000
     50379      8693  TIP3      H2             25.1986175172       32.6811335871      -47.2449170456  TIP3      8493            0.0000000000
     50380      8694  TIP3      OH2            21.6882717917       28.8900846045      -47.0339551886  TIP3      8494            0.0000000000
     50381      8694  TIP3      H1             20.9006530518       29.3404823502      -46.6592129159  TIP3      8494            0.0000000000
     50382      8694  TIP3      H2             22.1548171730       29.6626256203      -47.4210785509  TIP3      8494            0.0000000000
     50383      8695  TIP3      OH2            29.4785518556       21.9076955276      -36.4042939625  TIP3      8495            0.0000000000
     50384      8695  TIP3      H1             30.4116784800       22.0460603152      -36.1372853807  TIP3      8495            0.0000000000
     50385      8695  TIP3      H2             29.2577151778       21.0558218118      -35.9909490357  TIP3      8495            0.0000000000
     50386      8696  TIP3      OH2            30.2680287917       21.1244713921      -45.5105283830  TIP3      8496            0.0000000000
     50387      8696  TIP3      H1             30.5498113608       21.6679367366      -46.2661542663  TIP3      8496            0.0000000000
     50388      8696  TIP3      H2             30.8578576321       21.4705619555      -44.8051866802  TIP3      8496            0.0000000000
     50389      8697  TIP3      OH2            28.1368553379       33.5385087220      -47.3679004590  TIP3      8497            0.0000000000
     50390      8697  TIP3      H1             27.3280716725       33.6874036799      -46.8475832397  TIP3      8497            0.0000000000
     50391      8697  TIP3      H2             28.5149410746       34.4303526553      -47.3501709440  TIP3      8497            0.0000000000
     50392      8698  TIP3      OH2            27.9191830581       23.0564560609      -44.3693688162  TIP3      8498            0.0000000000
     50393      8698  TIP3      H1             28.2720608254       23.9541411716      -44.2873231610  TIP3      8498            0.0000000000
     50394      8698  TIP3      H2             27.5756133545       22.8382828548      -43.4758844200  TIP3      8498            0.0000000000
     50395      8699  TIP3      OH2            28.4844703784       24.4242880274      -35.8265774249  TIP3      8499            0.0000000000
     50396      8699  TIP3      H1             28.3972959128       24.5836209292      -34.8587538979  TIP3      8499            0.0000000000
     50397      8699  TIP3      H2             28.9277350976       23.5478995871      -35.8984794031  TIP3      8499            0.0000000000
     50398      8700  TIP3      OH2            28.2630291815       19.9423097855      -44.1025038409  TIP3      8500            0.0000000000
     50399      8700  TIP3      H1             27.7673698308       20.7049263581      -43.7598278516  TIP3      8500            0.0000000000
     50400      8700  TIP3      H2             29.0792970756       20.3804559960      -44.4516402991  TIP3      8500            0.0000000000
     50401      8701  TIP3      OH2            25.4027924025       34.3634669555      -46.7964544405  TIP3      8501            0.0000000000
     50402      8701  TIP3      H1             25.6331153433       35.1982078383      -47.2344966656  TIP3      8501            0.0000000000
     50403      8701  TIP3      H2             24.9406017199       34.6681912849      -45.9865302247  TIP3      8501            0.0000000000
     50404      8702  TIP3      OH2            23.9315354450       21.2618218630      -46.9140291318  TIP3      8502            0.0000000000
     50405      8702  TIP3      H1             23.9367035282       22.1187640227      -46.4614987292  TIP3      8502            0.0000000000
     50406      8702  TIP3      H2             24.8426949559       20.9800391808      -46.7355167011  TIP3      8502            0.0000000000
     50407      8703  TIP3      OH2            34.1914293161       21.7846109618      -34.5137838067  TIP3      8503            0.0000000000
     50408      8703  TIP3      H1             33.3390910088       21.9707991525      -34.9552515352  TIP3      8503            0.0000000000
     50409      8703  TIP3      H2             34.8224219734       21.9827472419      -35.2372281609  TIP3      8503            0.0000000000
     50410      8704  TIP3      OH2            32.8477127843       26.0851226235      -40.7965821521  TIP3      8504            0.0000000000
     50411      8704  TIP3      H1             32.0591531441       25.5113282378      -40.8803942888  TIP3      8504            0.0000000000
     50412      8704  TIP3      H2             33.4324380273       25.4445299576      -40.3161480177  TIP3      8504            0.0000000000
     50413      8705  TIP3      OH2            22.3163619694       31.4210516230      -48.1451514046  TIP3      8505            0.0000000000
     50414      8705  TIP3      H1             23.1620669136       31.7777640908      -47.8002958708  TIP3      8505            0.0000000000
     50415      8705  TIP3      H2             22.5428194435       31.3024257971      -49.0837888510  TIP3      8505            0.0000000000
     50416      8706  TIP3      OH2            20.7326644653       24.3474998019      -48.5837141815  TIP3      8506            0.0000000000
     50417      8706  TIP3      H1             20.7216199629       25.3199953681      -48.5793099358  TIP3      8506            0.0000000000
     50418      8706  TIP3      H2             20.0763164881       24.1553911251      -49.2814917204  TIP3      8506            0.0000000000
     50419      8707  TIP3      OH2            34.3129037244       35.2272778654      -38.9772821305  TIP3      8507            0.0000000000
     50420      8707  TIP3      H1             34.0886413629       35.7568669529      -39.7812762376  TIP3      8507            0.0000000000
     50421      8707  TIP3      H2             35.2859951987       35.2180702500      -39.0726140450  TIP3      8507            0.0000000000
     50422      8708  TIP3      OH2            21.4129116659       19.1611077387      -40.1410403673  TIP3      8508            0.0000000000
     50423      8708  TIP3      H1             21.3419606224       19.0293889248      -41.1102128748  TIP3      8508            0.0000000000
     50424      8708  TIP3      H2             21.1682810424       18.2517555897      -39.8431456835  TIP3      8508            0.0000000000
     50425      8709  TIP3      OH2            20.1755161133       32.7522273189      -44.3149457223  TIP3      8509            0.0000000000
     50426      8709  TIP3      H1             19.3484742394       33.2099565206      -44.1407684929  TIP3      8509            0.0000000000
     50427      8709  TIP3      H2             20.4755018525       33.3098985718      -45.0627452201  TIP3      8509            0.0000000000
     50428      8710  TIP3      OH2            19.6168489496       35.8877965044      -32.8313889681  TIP3      8510            0.0000000000
     50429      8710  TIP3      H1             20.5408845985       35.8727667360      -32.5342111542  TIP3      8510            0.0000000000
     50430      8710  TIP3      H2             19.3762665814       34.9501328061      -32.8151961304  TIP3      8510            0.0000000000
     50431      8711  TIP3      OH2            24.4281677343       34.2899834187      -31.2359318301  TIP3      8511            0.0000000000
     50432      8711  TIP3      H1             25.3815112216       34.0948211044      -31.2371054639  TIP3      8511            0.0000000000
     50433      8711  TIP3      H2             24.2068161074       34.1076628506      -32.1645781309  TIP3      8511            0.0000000000
     50434      8712  TIP3      OH2            28.5137923773       33.6972476446       49.6573261655  TIP3      8512            0.0000000000
     50435      8712  TIP3      H1             27.6367374989       33.4494177515       49.9782291004  TIP3      8512            0.0000000000
     50436      8712  TIP3      H2             29.1022613709       33.3329770167       50.3314951436  TIP3      8512            0.0000000000
     50437      8713  TIP3      OH2            30.7108025611       33.1862898058      -32.3434942776  TIP3      8513            0.0000000000
     50438      8713  TIP3      H1             30.3041393128       32.3234497867      -32.0964572866  TIP3      8513            0.0000000000
     50439      8713  TIP3      H2             31.5073518332       33.2003988088      -31.7774154213  TIP3      8513            0.0000000000
     50440      8714  TIP3      OH2            32.1379354670       34.0429607467      -49.2152701477  TIP3      8514            0.0000000000
     50441      8714  TIP3      H1             32.3801430341       33.1926862635      -48.7922474946  TIP3      8514            0.0000000000
     50442      8714  TIP3      H2             32.9764559780       34.4530428229      -49.5119763543  TIP3      8514            0.0000000000
     50443      8715  TIP3      OH2            19.1531481593       29.4585556704      -31.8457482074  TIP3      8515            0.0000000000
     50444      8715  TIP3      H1             18.8620178553       28.5312088114      -31.9340531193  TIP3      8515            0.0000000000
     50445      8715  TIP3      H2             18.7941430789       29.8500854707      -32.6736513023  TIP3      8515            0.0000000000
     50446      8716  TIP3      OH2            24.3640418758       29.0648771218      -49.3105147491  TIP3      8516            0.0000000000
     50447      8716  TIP3      H1             24.4424768815       28.6252683087      -48.4281197671  TIP3      8516            0.0000000000
     50448      8716  TIP3      H2             25.1490581225       29.6364068503      -49.2313475019  TIP3      8516            0.0000000000
     50449      8717  TIP3      OH2            26.1507656979       29.3856346954      -32.6448712261  TIP3      8517            0.0000000000
     50450      8717  TIP3      H1             26.0771882170       29.9364602910      -33.4533328553  TIP3      8517            0.0000000000
     50451      8717  TIP3      H2             26.1709322420       28.4642461874      -33.0115809784  TIP3      8517            0.0000000000
     50452      8718  TIP3      OH2            31.7607162702       29.2442856868      -34.8617696013  TIP3      8518            0.0000000000
     50453      8718  TIP3      H1             32.6728121587       29.6232414834      -34.8928729366  TIP3      8518            0.0000000000
     50454      8718  TIP3      H2             31.2838233550       30.0762077713      -34.6969255512  TIP3      8518            0.0000000000
     50455      8719  TIP3      OH2            20.5338095285       26.6485749815      -32.3425655375  TIP3      8519            0.0000000000
     50456      8719  TIP3      H1             21.1315233709       25.8957023502      -32.3179856034  TIP3      8519            0.0000000000
     50457      8719  TIP3      H2             20.8268678520       27.1604065802      -31.5610171264  TIP3      8519            0.0000000000
     50458      8720  TIP3      OH2            25.1850412873       27.8459553897      -47.1163646177  TIP3      8520            0.0000000000
     50459      8720  TIP3      H1             24.4371505396       27.3423503419      -46.7432243012  TIP3      8520            0.0000000000
     50460      8720  TIP3      H2             25.5421623776       27.2354508788      -47.7986079578  TIP3      8520            0.0000000000
     50461      8721  TIP3      OH2            24.1947659956       25.6762352650      -35.4701904856  TIP3      8521            0.0000000000
     50462      8721  TIP3      H1             23.5893891156       26.4375694356      -35.5893443458  TIP3      8521            0.0000000000
     50463      8721  TIP3      H2             24.9612275916       26.0247943410      -35.9598994035  TIP3      8521            0.0000000000
     50464      8722  TIP3      OH2            26.4280226281       26.1925420215      -49.0663029913  TIP3      8522            0.0000000000
     50465      8722  TIP3      H1             26.5024322014       26.0742615603      -50.0223593074  TIP3      8522            0.0000000000
     50466      8722  TIP3      H2             27.3597864430       26.1156650558      -48.7524178278  TIP3      8522            0.0000000000
     50467      8723  TIP3      OH2            29.6332353267       28.3880885191      -31.8270602848  TIP3      8523            0.0000000000
     50468      8723  TIP3      H1             30.4569249913       27.9836905048      -32.1502715865  TIP3      8523            0.0000000000
     50469      8723  TIP3      H2             29.2443968718       27.6566187670      -31.3190838180  TIP3      8523            0.0000000000
     50470      8724  TIP3      OH2            35.0680464149       28.7183394102       49.9285673094  TIP3      8524            0.0000000000
     50471      8724  TIP3      H1             34.9615557714       27.7578478372       49.8209178043  TIP3      8524            0.0000000000
     50472      8724  TIP3      H2             35.8593356615       28.8372912743       49.3504434520  TIP3      8524            0.0000000000
     50473      8725  TIP3      OH2            24.8638084539       23.2347983210      -34.4937258074  TIP3      8525            0.0000000000
     50474      8725  TIP3      H1             24.9449287505       22.5758891260      -35.2213259615  TIP3      8525            0.0000000000
     50475      8725  TIP3      H2             24.5851123620       24.0450704010      -34.9806706288  TIP3      8525            0.0000000000
     50476      8726  TIP3      OH2            25.1424486357       21.3028112874      -36.4653379130  TIP3      8526            0.0000000000
     50477      8726  TIP3      H1             25.7154296137       21.8116837885      -37.0866605008  TIP3      8526            0.0000000000
     50478      8726  TIP3      H2             24.3164430710       21.2076873173      -36.9889202321  TIP3      8526            0.0000000000
     50479      8727  TIP3      OH2            26.3970575296       27.1850551004      -36.4322881487  TIP3      8527            0.0000000000
     50480      8727  TIP3      H1             27.2579111660       27.5929087990      -36.6049209231  TIP3      8527            0.0000000000
     50481      8727  TIP3      H2             25.8128190028       27.8662775789      -36.8246368626  TIP3      8527            0.0000000000
     50482      8728  TIP3      OH2            30.4083797937       24.7409076385      -31.6170626062  TIP3      8528            0.0000000000
     50483      8728  TIP3      H1             30.4925773561       23.8167473208      -31.8863890149  TIP3      8528            0.0000000000
     50484      8728  TIP3      H2             31.2990909629       24.9413022655      -31.2496333468  TIP3      8528            0.0000000000
     50485      8729  TIP3      OH2            32.2851280367       27.6970566616      -32.7844497072  TIP3      8529            0.0000000000
     50486      8729  TIP3      H1             32.1292714277       28.2246610487      -33.5965819027  TIP3      8529            0.0000000000
     50487      8729  TIP3      H2             33.1716043716       27.3384042343      -32.9897899669  TIP3      8529            0.0000000000
     50488      8730  TIP3      OH2            23.4168457610       24.0580817339      -32.2621119638  TIP3      8530            0.0000000000
     50489      8730  TIP3      H1             22.5604760645       23.6580532954      -32.5115225331  TIP3      8530            0.0000000000
     50490      8730  TIP3      H2             23.9734178645       23.8363817475      -33.0363736769  TIP3      8530            0.0000000000
     50491      8731  TIP3      OH2            26.1982118278       18.8443907849      -36.5238482384  TIP3      8531            0.0000000000
     50492      8731  TIP3      H1             25.8805079925       19.7701451537      -36.4529220649  TIP3      8531            0.0000000000
     50493      8731  TIP3      H2             25.3573534809       18.3988709115      -36.7032551065  TIP3      8531            0.0000000000
     50494      8732  TIP3      OH2            27.0741524291       22.9894865014      -32.3615507509  TIP3      8532            0.0000000000
     50495      8732  TIP3      H1             26.4384061357       22.7348936985      -31.6631813846  TIP3      8532            0.0000000000
     50496      8732  TIP3      H2             26.4838844776       22.9615397831      -33.1375632137  TIP3      8532            0.0000000000
     50497      8733  TIP3      OH2            30.0151602360       22.2131938977      -33.3531399031  TIP3      8533            0.0000000000
     50498      8733  TIP3      H1             29.0557193677       22.2654460845      -33.2488577145  TIP3      8533            0.0000000000
     50499      8733  TIP3      H2             30.2718240545       21.6942027877      -32.5601411983  TIP3      8533            0.0000000000
     50500      8734  TIP3      OH2            31.3755839083       20.9134135872      -31.4796270599  TIP3      8534            0.0000000000
     50501      8734  TIP3      H1             31.3986885042       19.9262715966      -31.4746322396  TIP3      8534            0.0000000000
     50502      8734  TIP3      H2             31.3114475555       21.1327302498      -30.5262332297  TIP3      8534            0.0000000000
     50503      8735  TIP3      OH2            21.2531423395       22.2189396454      -32.1882302573  TIP3      8535            0.0000000000
     50504      8735  TIP3      H1             21.1141100763       21.3976184336      -32.6940626066  TIP3      8535            0.0000000000
     50505      8735  TIP3      H2             21.0017065082       21.9398576606      -31.2696083115  TIP3      8535            0.0000000000
     50506      8736  TIP3      OH2            25.9927758600       18.6090681267      -33.4426738486  TIP3      8536            0.0000000000
     50507      8736  TIP3      H1             26.8186521152       18.0990190398      -33.4012493296  TIP3      8536            0.0000000000
     50508      8736  TIP3      H2             25.8529863370       18.6045784089      -34.3979493574  TIP3      8536            0.0000000000
     50509      8737  TIP3      OH2            26.3235458240       19.8141782073      -31.0107442963  TIP3      8537            0.0000000000
     50510      8737  TIP3      H1             26.1245872801       19.3395299056      -31.8527137711  TIP3      8537            0.0000000000
     50511      8737  TIP3      H2             25.7299676042       20.5866162131      -31.0983803691  TIP3      8537            0.0000000000
     50512      8738  TIP3      OH2            25.9530020028       36.7639033963      -48.2837286457  TIP3      8538            0.0000000000
     50513      8738  TIP3      H1             26.8665795688       36.9110476340      -47.9776059189  TIP3      8538            0.0000000000
     50514      8738  TIP3      H2             26.0636368266       36.8866735418      -49.2542244866  TIP3      8538            0.0000000000
     50515      8739  TIP3      OH2            19.6007268691       31.4717958609      -48.4680205818  TIP3      8539            0.0000000000
     50516      8739  TIP3      H1             20.5834834634       31.4761143878      -48.3763697299  TIP3      8539            0.0000000000
     50517      8739  TIP3      H2             19.4697663000       31.1957517411      -49.3886892206  TIP3      8539            0.0000000000
     50518      8740  TIP3      OH2            18.3085678044       36.7749869603      -43.7792279300  TIP3      8540            0.0000000000
     50519      8740  TIP3      H1             17.5551939573       36.3107301186      -44.2056873106  TIP3      8540            0.0000000000
     50520      8740  TIP3      H2             18.4094798410       36.2069159172      -42.9952067153  TIP3      8540            0.0000000000
     50521      8741  TIP3      OH2            19.2105269485       34.6838583757      -41.7540406319  TIP3      8541            0.0000000000
     50522      8741  TIP3      H1             18.4903714833       34.1280305003      -41.4060231057  TIP3      8541            0.0000000000
     50523      8741  TIP3      H2             19.7963672381       34.7698097388      -40.9698292071  TIP3      8541            0.0000000000
     50524      8742  TIP3      OH2            37.3538090508       35.6299877426      -39.1809145290  TIP3      8542            0.0000000000
     50525      8742  TIP3      H1             37.3832962712       35.9136159487      -38.2523302953  TIP3      8542            0.0000000000
     50526      8742  TIP3      H2             37.1163446998       36.4724960853      -39.5849675316  TIP3      8542            0.0000000000
     50527      8743  TIP3      OH2            36.1556402392       34.9333757252      -35.7870150113  TIP3      8543            0.0000000000
     50528      8743  TIP3      H1             35.8368461048       34.2634832140      -36.4233391723  TIP3      8543            0.0000000000
     50529      8743  TIP3      H2             36.6284840543       34.3227634195      -35.1719426950  TIP3      8543            0.0000000000
     50530      8744  TIP3      OH2            34.3738158354       31.0505349596      -31.4065696877  TIP3      8544            0.0000000000
     50531      8744  TIP3      H1             33.6301597745       31.0588068340      -30.7587423518  TIP3      8544            0.0000000000
     50532      8744  TIP3      H2             34.9444755316       31.7704909265      -31.0835194067  TIP3      8544            0.0000000000
     50533      8745  TIP3      OH2            35.9661038071       29.1803740540      -46.0617076129  TIP3      8545            0.0000000000
     50534      8745  TIP3      H1             36.6874850246       29.7657119769      -45.8016559847  TIP3      8545            0.0000000000
     50535      8745  TIP3      H2             36.0783346489       28.4636851720      -45.3956427750  TIP3      8545            0.0000000000
     50536      8746  TIP3      OH2            36.3602225721       27.3147219236      -44.1111498928  TIP3      8546            0.0000000000
     50537      8746  TIP3      H1             35.4102422107       27.0774536960      -44.0472615494  TIP3      8546            0.0000000000
     50538      8746  TIP3      H2             36.6239976318       27.1734950447      -43.1891876002  TIP3      8546            0.0000000000
     50539      8747  TIP3      OH2            36.1674628507       29.7887573476      -38.9621289618  TIP3      8547            0.0000000000
     50540      8747  TIP3      H1             36.8275620760       29.3339967556      -39.5099092491  TIP3      8547            0.0000000000
     50541      8747  TIP3      H2             36.2012094398       30.6935287924      -39.3481467689  TIP3      8547            0.0000000000
     50542      8748  TIP3      OH2            34.8573242131       32.7923850478      -36.6596422931  TIP3      8548            0.0000000000
     50543      8748  TIP3      H1             34.1557669702       33.2780550857      -36.2074305396  TIP3      8548            0.0000000000
     50544      8748  TIP3      H2             34.4288304819       32.6271284556      -37.5332772960  TIP3      8548            0.0000000000
     50545      8749  TIP3      OH2            36.5066388031       27.2963199599      -47.9685071828  TIP3      8549            0.0000000000
     50546      8749  TIP3      H1             35.6684977216       27.5883603561      -48.3280066821  TIP3      8549            0.0000000000
     50547      8749  TIP3      H2             36.5931982381       27.9619433738      -47.2566286904  TIP3      8549            0.0000000000
     50548      8750  TIP3      OH2            34.8867999273       24.1268387570      -48.7727933660  TIP3      8550            0.0000000000
     50549      8750  TIP3      H1             35.3940518540       24.5901600529      -49.4717259641  TIP3      8550            0.0000000000
     50550      8750  TIP3      H2             34.8133265114       23.2588583579      -49.1977089946  TIP3      8550            0.0000000000
     50551      8751  TIP3      OH2            34.1288149849       26.0949636457      -43.1956359457  TIP3      8551            0.0000000000
     50552      8751  TIP3      H1             33.8795740326       25.2108653434      -43.5054977484  TIP3      8551            0.0000000000
     50553      8751  TIP3      H2             33.8322039218       26.0876993514      -42.2582947176  TIP3      8551            0.0000000000
     50554      8752  TIP3      OH2            19.1141040939       28.2427856597      -39.1621986179  TIP3      8552            0.0000000000
     50555      8752  TIP3      H1             19.2073170682       27.9223184871      -40.0952119733  TIP3      8552            0.0000000000
     50556      8752  TIP3      H2             19.9903054533       27.9564440296      -38.8171607457  TIP3      8552            0.0000000000
     50557      8753  TIP3      OH2            35.0599432391       27.7023088858      -33.7609266226  TIP3      8553            0.0000000000
     50558      8753  TIP3      H1             35.8655156656       27.1571143385      -33.8930130153  TIP3      8553            0.0000000000
     50559      8753  TIP3      H2             35.4258548656       28.5962147225      -33.8352004518  TIP3      8553            0.0000000000
     50560      8754  TIP3      OH2            36.6184087784       25.6834548068      -33.0642686001  TIP3      8554            0.0000000000
     50561      8754  TIP3      H1             35.6464151652       25.5392999765      -33.0329147171  TIP3      8554            0.0000000000
     50562      8754  TIP3      H2             36.9086428631       24.7652499230      -32.8847742796  TIP3      8554            0.0000000000
     50563      8755  TIP3      OH2            34.2462221240       21.9950663593      -50.1705313260  TIP3      8555            0.0000000000
     50564      8755  TIP3      H1             34.8059143280       21.3374438879      -49.7329940763  TIP3      8555            0.0000000000
     50565      8755  TIP3      H2             33.3848706649       21.8927927039      -49.7180935459  TIP3      8555            0.0000000000
     50566      8756  TIP3      OH2            33.8235963390       23.7052024111      -45.0424719314  TIP3      8556            0.0000000000
     50567      8756  TIP3      H1             33.8382403830       22.7394791025      -44.8485108430  TIP3      8556            0.0000000000
     50568      8756  TIP3      H2             34.7683375104       23.8764990095      -45.2149057447  TIP3      8556            0.0000000000
     50569      8757  TIP3      OH2            34.0934314760       24.2250778869      -39.5058443288  TIP3      8557            0.0000000000
     50570      8757  TIP3      H1             35.0666581952       24.1114098734      -39.6619921483  TIP3      8557            0.0000000000
     50571      8757  TIP3      H2             34.0683721359       24.0527758203      -38.5536608912  TIP3      8557            0.0000000000
     50572      8758  TIP3      OH2            34.4265866570       24.5764363644      -36.6548293989  TIP3      8558            0.0000000000
     50573      8758  TIP3      H1             33.5954978212       25.0566063930      -36.4426346391  TIP3      8558            0.0000000000
     50574      8758  TIP3      H2             34.9535466165       25.3464331374      -36.9580706182  TIP3      8558            0.0000000000
     50575      8759  TIP3      OH2            19.0260428311       23.1946891599      -33.1274261516  TIP3      8559            0.0000000000
     50576      8759  TIP3      H1             19.9227692770       23.0098469037      -32.7779177780  TIP3      8559            0.0000000000
     50577      8759  TIP3      H2             18.6120422347       22.3008500508      -33.1247118490  TIP3      8559            0.0000000000
     50578      8760  TIP3      OH2            36.7533026245       18.2536354965      -31.5582859229  TIP3      8560            0.0000000000
     50579      8760  TIP3      H1             37.2086086332       17.7168754028      -32.2210771861  TIP3      8560            0.0000000000
     50580      8760  TIP3      H2             36.7079902656       19.1134295566      -32.0307461247  TIP3      8560            0.0000000000
     50581      8761  TIP3      OH2            34.2712369682       21.0513894105      -44.7772356360  TIP3      8561            0.0000000000
     50582      8761  TIP3      H1             34.5680231055       20.7128118665      -43.8974035743  TIP3      8561            0.0000000000
     50583      8761  TIP3      H2             33.7889003826       20.2681576570      -45.1078291440  TIP3      8561            0.0000000000
     50584      8762  TIP3      OH2            20.0817876049       21.5654321008      -39.6729437768  TIP3      8562            0.0000000000
     50585      8762  TIP3      H1             20.4645911523       20.6616299506      -39.7263559232  TIP3      8562            0.0000000000
     50586      8762  TIP3      H2             20.8548607398       22.1321866471      -39.8519274114  TIP3      8562            0.0000000000
     50587      8763  TIP3      OH2            18.5244404397       24.6397009411      -39.0872171665  TIP3      8563            0.0000000000
     50588      8763  TIP3      H1             19.0670173929       24.4760461386      -39.8848709980  TIP3      8563            0.0000000000
     50589      8763  TIP3      H2             18.9626254305       25.4418514479      -38.7748328587  TIP3      8563            0.0000000000
     50590      8764  TIP3      OH2            36.3640699165       20.6404958378      -32.7008981277  TIP3      8564            0.0000000000
     50591      8764  TIP3      H1             35.4779423247       20.9383046386      -32.3758864501  TIP3      8564            0.0000000000
     50592      8764  TIP3      H2             36.0809944242       20.4711062650      -33.6195136492  TIP3      8564            0.0000000000
     50593      8765  TIP3      OH2            36.8477644368       20.8471434429      -48.4534957953  TIP3      8565            0.0000000000
     50594      8765  TIP3      H1             37.1504403249       20.0048815047      -48.8339759130  TIP3      8565            0.0000000000
     50595      8765  TIP3      H2             37.3285428658       21.5343826236      -48.9528058359  TIP3      8565            0.0000000000
     50596      8766  TIP3      OH2            18.7039650908       20.7855542403      -45.2310263114  TIP3      8566            0.0000000000
     50597      8766  TIP3      H1             17.8065073500       21.0987335327      -45.0627274340  TIP3      8566            0.0000000000
     50598      8766  TIP3      H2             18.8938802681       21.1874120795      -46.0950917482  TIP3      8566            0.0000000000
     50599      8767  TIP3      OH2            33.1896118501       35.6644209659      -43.4742622676  TIP3      8567            0.0000000000
     50600      8767  TIP3      H1             33.8768095015       35.6852877983      -44.1788133578  TIP3      8567            0.0000000000
     50601      8767  TIP3      H2             33.7167313281       35.9503238292      -42.6973795090  TIP3      8567            0.0000000000
     50602      8768  TIP3      OH2            18.7637341571       19.3643319271      -36.8342933191  TIP3      8568            0.0000000000
     50603      8768  TIP3      H1             18.0481553574       19.0876146371      -36.2270679737  TIP3      8568            0.0000000000
     50604      8768  TIP3      H2             18.3212587487       19.9834594546      -37.4403563065  TIP3      8568            0.0000000000
     50605      8769  TIP3      OH2            20.9571382579       32.4133039907      -32.9521902505  TIP3      8569            0.0000000000
     50606      8769  TIP3      H1             20.1192662027       32.4186923788      -33.4473229089  TIP3      8569            0.0000000000
     50607      8769  TIP3      H2             20.6599586438       32.4928892014      -32.0428625045  TIP3      8569            0.0000000000
     50608      8770  TIP3      OH2            23.7939053845       33.8202920780      -36.4877258564  TIP3      8570            0.0000000000
     50609      8770  TIP3      H1             23.6822396533       34.8013284471      -36.5769433446  TIP3      8570            0.0000000000
     50610      8770  TIP3      H2             24.7716528064       33.8201288084      -36.5109972916  TIP3      8570            0.0000000000
     50611      8771  TIP3      OH2            28.4023892779       34.8511861156      -33.7769412936  TIP3      8571            0.0000000000
     50612      8771  TIP3      H1             28.2550861255       34.6487678606      -32.8319189014  TIP3      8571            0.0000000000
     50613      8771  TIP3      H2             29.1482511415       35.4848836196      -33.7340532216  TIP3      8571            0.0000000000
     50614      8772  TIP3      OH2            30.6035946425       36.6516023400      -34.1419610060  TIP3      8572            0.0000000000
     50615      8772  TIP3      H1             31.2193875376       35.9364742398      -34.3750704940  TIP3      8572            0.0000000000
     50616      8772  TIP3      H2             30.8697405471       36.7971298340      -33.2121484078  TIP3      8572            0.0000000000
     50617      8773  TIP3      OH2            35.0838152507       18.9361838852      -34.9111889727  TIP3      8573            0.0000000000
     50618      8773  TIP3      H1             34.2871391521       19.3108931001      -35.3073902193  TIP3      8573            0.0000000000
     50619      8773  TIP3      H2             35.1509887361       18.0712529259      -35.3533285523  TIP3      8573            0.0000000000
     50620      8774  TIP3      OH2            21.0195332820       37.1638439402      -36.6597716278  TIP3      8574            0.0000000000
     50621      8774  TIP3      H1             20.0834149604       37.1101382717      -36.9653969712  TIP3      8574            0.0000000000
     50622      8774  TIP3      H2             20.9049110299       37.3372468424      -35.7119769574  TIP3      8574            0.0000000000
     50623      8775  TIP3      OH2            23.5780751761       36.3971027167      -37.0154500501  TIP3      8575            0.0000000000
     50624      8775  TIP3      H1             22.6703776595       36.7272332673      -36.7793186004  TIP3      8575            0.0000000000
     50625      8775  TIP3      H2             23.6044276598       36.6399081063      -37.9610491630  TIP3      8575            0.0000000000
     50626      8776  TIP3      OH2            28.4729089097       36.2554255718      -38.2530951239  TIP3      8576            0.0000000000
     50627      8776  TIP3      H1             27.7490013199       36.4141619741      -38.8998603069  TIP3      8576            0.0000000000
     50628      8776  TIP3      H2             28.4737023406       37.1192199928      -37.7924192353  TIP3      8576            0.0000000000
     50629      8777  TIP3      OH2            30.2447910589       34.7428590156      -36.8333525466  TIP3      8577            0.0000000000
     50630      8777  TIP3      H1             29.5707668616       35.2368838756      -37.3476783061  TIP3      8577            0.0000000000
     50631      8777  TIP3      H2             30.9965567019       35.3323853931      -36.9846785224  TIP3      8577            0.0000000000
     50632      8778  TIP3      OH2            32.9752525956       36.9469033311      -37.2229313693  TIP3      8578            0.0000000000
     50633      8778  TIP3      H1             32.8007763038       37.8122315148      -37.6330148974  TIP3      8578            0.0000000000
     50634      8778  TIP3      H2             33.4539179187       36.4456100756      -37.9192006696  TIP3      8578            0.0000000000
     50635      8779  TIP3      OH2            20.7864494121       34.9249605506      -39.5548666044  TIP3      8579            0.0000000000
     50636      8779  TIP3      H1             20.7753516354       34.4134868901      -38.7118288412  TIP3      8579            0.0000000000
     50637      8779  TIP3      H2             21.6249264385       34.6327897772      -39.9776232304  TIP3      8579            0.0000000000
     50638      8780  TIP3      OH2            22.9669631532       34.2808682588      -40.8202927176  TIP3      8580            0.0000000000
     50639      8780  TIP3      H1             22.8825166398       33.3125059284      -40.6867544056  TIP3      8580            0.0000000000
     50640      8780  TIP3      H2             23.7627100189       34.4470759900      -40.2711846486  TIP3      8580            0.0000000000
     50641      8781  TIP3      OH2            25.1888836051       34.2836827556      -39.4715253548  TIP3      8581            0.0000000000
     50642      8781  TIP3      H1             25.4429733158       33.3481765115      -39.6156959883  TIP3      8581            0.0000000000
     50643      8781  TIP3      H2             25.4795756782       34.4307614301      -38.5439873221  TIP3      8581            0.0000000000
     50644      8782  TIP3      OH2            28.7202992150       20.3731889663      -40.6497112392  TIP3      8582            0.0000000000
     50645      8782  TIP3      H1             27.9486717160       19.8393567902      -40.4161621631  TIP3      8582            0.0000000000
     50646      8782  TIP3      H2             29.1837915327       19.7763262932      -41.2546129332  TIP3      8582            0.0000000000
     50647      8783  TIP3      OH2            33.7125777852       18.3762798596      -40.7826160743  TIP3      8583            0.0000000000
     50648      8783  TIP3      H1             34.2290432962       19.0158169592      -41.3173589409  TIP3      8583            0.0000000000
     50649      8783  TIP3      H2             32.8111446997       18.6282130311      -41.0827769125  TIP3      8583            0.0000000000
     50650      8784  TIP3      OH2            35.1619646004       19.7795973805      -42.5350440917  TIP3      8584            0.0000000000
     50651      8784  TIP3      H1             35.8724941901       19.1488320908      -42.8052361609  TIP3      8584            0.0000000000
     50652      8784  TIP3      H2             35.7382685688       20.5325253899      -42.2758975734  TIP3      8584            0.0000000000
     50653      8785  TIP3      OH2            21.1016503709       18.6731649140      -42.8855417622  TIP3      8585            0.0000000000
     50654      8785  TIP3      H1             20.2778967454       18.5636862229      -43.3933578296  TIP3      8585            0.0000000000
     50655      8785  TIP3      H2             21.5823683908       17.8408603809      -43.0962659887  TIP3      8585            0.0000000000
     50656      8786  TIP3      OH2            19.8429985474       18.6492251788      -47.2954042737  TIP3      8586            0.0000000000
     50657      8786  TIP3      H1             20.3928792534       19.3271474678      -47.7587107486  TIP3      8586            0.0000000000
     50658      8786  TIP3      H2             19.4464502072       19.1626376528      -46.5651358952  TIP3      8586            0.0000000000
     50659      8787  TIP3      OH2            25.3938055238       18.4461103289      -43.2418096023  TIP3      8587            0.0000000000
     50660      8787  TIP3      H1             26.2218743390       18.7297717581      -43.6505174618  TIP3      8587            0.0000000000
     50661      8787  TIP3      H2             25.5639062326       18.6448048276      -42.3106466173  TIP3      8587            0.0000000000
     50662      8788  TIP3      OH2            31.1792561396       18.9774784694      -41.8138239548  TIP3      8588            0.0000000000
     50663      8788  TIP3      H1             30.9555647461       18.9662643074      -42.7472781532  TIP3      8588            0.0000000000
     50664      8788  TIP3      H2             30.6838475308       18.1895967756      -41.4642835740  TIP3      8588            0.0000000000
     50665      8789  TIP3      OH2            32.6914994526       18.7427309459      -45.7664695134  TIP3      8589            0.0000000000
     50666      8789  TIP3      H1             31.9183445097       19.3238560577      -45.7010294673  TIP3      8589            0.0000000000
     50667      8789  TIP3      H2             32.3154072359       17.8797328862      -45.4727523410  TIP3      8589            0.0000000000
     50668      8790  TIP3      OH2            19.8022949616       34.6573283840      -46.1345042133  TIP3      8590            0.0000000000
     50669      8790  TIP3      H1             18.8579781067       34.5600702705      -46.3418953654  TIP3      8590            0.0000000000
     50670      8790  TIP3      H2             20.0068356897       35.5112274703      -46.5585008018  TIP3      8590            0.0000000000
     50671      8791  TIP3      OH2            21.6576353633       20.0223926429      -48.7006742687  TIP3      8591            0.0000000000
     50672      8791  TIP3      H1             22.4420122244       19.4613638161      -48.5798258873  TIP3      8591            0.0000000000
     50673      8791  TIP3      H2             21.9351724917       20.8460954189      -48.2947542052  TIP3      8591            0.0000000000
     50674      8792  TIP3      OH2            27.1399098918       21.0203993646      -46.4369628294  TIP3      8592            0.0000000000
     50675      8792  TIP3      H1             27.6692955092       20.5537408829      -45.7692174282  TIP3      8592            0.0000000000
     50676      8792  TIP3      H2             27.0840501889       21.8952854994      -46.0096975625  TIP3      8592            0.0000000000
     50677      8793  TIP3      OH2            28.6708163366       36.2233469974      -48.1774987325  TIP3      8593            0.0000000000
     50678      8793  TIP3      H1             29.6561933622       36.2071394632      -48.1108962529  TIP3      8593            0.0000000000
     50679      8793  TIP3      H2             28.5459502116       35.7389206379      -49.0161789926  TIP3      8593            0.0000000000
     50680      8794  TIP3      OH2            35.2776356860       35.4249373009      -45.0075210398  TIP3      8594            0.0000000000
     50681      8794  TIP3      H1             35.0756883596       34.4835813981      -45.2233498212  TIP3      8594            0.0000000000
     50682      8794  TIP3      H2             35.2172754655       35.7914376483      -45.9090161855  TIP3      8594            0.0000000000
     50683      8795  TIP3      OH2            20.8567354087       19.6651410648      -33.4399241656  TIP3      8595            0.0000000000
     50684      8795  TIP3      H1             20.3368167831       18.8416572660      -33.4458258607  TIP3      8595            0.0000000000
     50685      8795  TIP3      H2             21.5822447909       19.4491659606      -32.8154096061  TIP3      8595            0.0000000000
     50686      8796  TIP3      OH2            22.8329091283       18.8340729178      -31.5238653711  TIP3      8596            0.0000000000
     50687      8796  TIP3      H1             23.7408438981       18.6601475394      -31.8352362185  TIP3      8596            0.0000000000
     50688      8796  TIP3      H2             22.5496162253       17.9258048490      -31.3029602850  TIP3      8596            0.0000000000
     50689      8797  TIP3      OH2            21.9734703715       36.4826245690      -49.0962401660  TIP3      8597            0.0000000000
     50690      8797  TIP3      H1             21.3332375480       36.5115691916      -48.3605018875  TIP3      8597            0.0000000000
     50691      8797  TIP3      H2             22.5287254387       35.7470969141      -48.8090261071  TIP3      8597            0.0000000000
     50692      8798  TIP3      OH2            31.4726856176       18.2861077196      -31.5334212202  TIP3      8598            0.0000000000
     50693      8798  TIP3      H1             31.4399725833       17.7496138839      -30.7151306947  TIP3      8598            0.0000000000
     50694      8798  TIP3      H2             32.3526359135       18.0282537751      -31.8941210363  TIP3      8598            0.0000000000
     50695      8799  TIP3      OH2            34.4994820634       34.0755571600      -33.0301077523  TIP3      8599            0.0000000000
     50696      8799  TIP3      H1             33.8974666337       34.3984216430      -33.7275165788  TIP3      8599            0.0000000000
     50697      8799  TIP3      H2             34.8766463353       34.9194146600      -32.7281658557  TIP3      8599            0.0000000000
     50698      8800  TIP3      OH2            37.3961312790       24.6765656028      -44.3224340825  TIP3      8600            0.0000000000
     50699      8800  TIP3      H1             37.1554752253       25.6185745890      -44.2878317675  TIP3      8600            0.0000000000
     50700      8800  TIP3      H2             36.8884576479       24.3702548464      -45.1047848178  TIP3      8600            0.0000000000
     50701      8801  TIP3      OH2            37.3020252407       29.2870693955      -36.4665690421  TIP3      8601            0.0000000000
     50702      8801  TIP3      H1             36.8692240285       29.3539917906      -37.3473045606  TIP3      8601            0.0000000000
     50703      8801  TIP3      H2             37.1100897824       28.3635110867      -36.1915714424  TIP3      8601            0.0000000000
     50704      8802  TIP3      OH2            36.8528852611       32.1221864045      -39.9294237781  TIP3      8602            0.0000000000
     50705      8802  TIP3      H1             37.6855684941       32.3216845007      -40.3978735489  TIP3      8602            0.0000000000
     50706      8802  TIP3      H2             36.9654822536       32.6561093332      -39.1364771996  TIP3      8602            0.0000000000
     50707      8803  TIP3      OH2            37.0842301515       21.6478677471      -42.5964893778  TIP3      8603            0.0000000000
     50708      8803  TIP3      H1             37.9394043825       22.1200355280      -42.4929022070  TIP3      8603            0.0000000000
     50709      8803  TIP3      H2             37.0127460121       21.6487249136      -43.5625594538  TIP3      8603            0.0000000000
     50710      8804  TIP3      OH2            37.4726446441       26.7447074910      -35.3881971280  TIP3      8604            0.0000000000
     50711      8804  TIP3      H1             37.3675677271       26.1425295334      -34.6165672461  TIP3      8604            0.0000000000
     50712      8804  TIP3      H2             36.6876820095       26.5305625459      -35.9452613265  TIP3      8604            0.0000000000
     50713      8805  TIP3      OH2            37.6413790394       28.9763110147      -32.1602088512  TIP3      8605            0.0000000000
     50714      8805  TIP3      H1             37.0444122889       28.2478517581      -31.9147343761  TIP3      8605            0.0000000000
     50715      8805  TIP3      H2             37.2110825763       29.3671178092      -32.9484162712  TIP3      8605            0.0000000000
     50716      8806  TIP3      OH2            36.5921316770       36.7057541378      -43.1398306949  TIP3      8606            0.0000000000
     50717      8806  TIP3      H1             36.0388805267       36.2058535354      -43.7852081297  TIP3      8606            0.0000000000
     50718      8806  TIP3      H2             36.8112483314       35.9898768749      -42.5076472043  TIP3      8606            0.0000000000
     50719      8807  TIP3      OH2            37.1665819950       34.3706694017      -41.6770800840  TIP3      8607            0.0000000000
     50720      8807  TIP3      H1             36.3895084013       33.9407443068      -41.2788920808  TIP3      8607            0.0000000000
     50721      8807  TIP3      H2             37.7450071146       34.4906655211      -40.9000284508  TIP3      8607            0.0000000000
     50722      8808  TIP3      OH2            37.7641895595       27.4919487094      -39.1210943411  TIP3      8608            0.0000000000
     50723      8808  TIP3      H1             37.7825962580       27.5679748214      -40.0876210668  TIP3      8608            0.0000000000
     50724      8808  TIP3      H2             38.6132000943       27.9318153756      -38.9237841627  TIP3      8608            0.0000000000
     50725      8809  TIP3      OH2            37.0309440650       23.1151821706      -33.3344842012  TIP3      8609            0.0000000000
     50726      8809  TIP3      H1             37.9899809872       23.0328849773      -33.5016368498  TIP3      8609            0.0000000000
     50727      8809  TIP3      H2             36.8564537139       22.3520716221      -32.7400128354  TIP3      8609            0.0000000000
     50728      8810  TIP3      OH2            36.6743040683       24.3469695534      -39.7935391868  TIP3      8610            0.0000000000
     50729      8810  TIP3      H1             37.5574528379       23.9542593848      -39.6362192215  TIP3      8610            0.0000000000
     50730      8810  TIP3      H2             36.9522546354       25.2640290739      -39.7740729484  TIP3      8610            0.0000000000
     50731      8811  TIP3      OH2            36.7698785517       21.0199015162      -45.6513413954  TIP3      8611            0.0000000000
     50732      8811  TIP3      H1             35.8407169537       21.2733766314      -45.4859444284  TIP3      8611            0.0000000000
     50733      8811  TIP3      H2             36.8150827249       21.0620309353      -46.6328784730  TIP3      8611            0.0000000000
     50734      8812  TIP3      OH2            36.4157923503       19.2907922352      -37.2356581647  TIP3      8612            0.0000000000
     50735      8812  TIP3      H1             36.1937227002       19.3623699827      -36.2820216154  TIP3      8612            0.0000000000
     50736      8812  TIP3      H2             35.8430135361       19.9738676488      -37.6320292974  TIP3      8612            0.0000000000
     50737      8813  TIP3      OH2           -30.0939518125       36.9961726397      -39.6942345251  TIP3      8613            0.0000000000
     50738      8813  TIP3      H1            -30.0457514448       36.3416109617      -40.4182192608  TIP3      8613            0.0000000000
     50739      8813  TIP3      H2            -31.0680685351       37.0386618310      -39.5446055057  TIP3      8613            0.0000000000
     50740      8814  TIP3      OH2           -21.4298458015       36.6621993308      -47.2776003649  TIP3      8614            0.0000000000
     50741      8814  TIP3      H1            -22.3694402841       36.7598715735      -47.0057183776  TIP3      8614            0.0000000000
     50742      8814  TIP3      H2            -21.2739960609       37.6360644153      -47.2399427398  TIP3      8614            0.0000000000
     50743      8815  TIP3      OH2           -32.5615105703       37.8825074410      -39.3823086937  TIP3      8615            0.0000000000
     50744      8815  TIP3      H1            -33.4913857867       37.8249975556      -39.7016442365  TIP3      8615            0.0000000000
     50745      8815  TIP3      H2            -32.4117911838       38.8428699290      -39.5668288235  TIP3      8615            0.0000000000
     50746      8816  TIP3      OH2           -27.7991328797       37.6687895228      -35.8714106568  TIP3      8616            0.0000000000
     50747      8816  TIP3      H1            -26.9975595627       37.2990591487      -35.4354561441  TIP3      8616            0.0000000000
     50748      8816  TIP3      H2            -28.4687700302       37.0650303303      -35.5124646519  TIP3      8616            0.0000000000
     50749      8817  TIP3      OH2           -35.0722227500       37.6339012816      -40.4343064823  TIP3      8617            0.0000000000
     50750      8817  TIP3      H1            -35.1642461120       37.6449918988      -41.4113484935  TIP3      8617            0.0000000000
     50751      8817  TIP3      H2            -35.6463963684       36.8754779934      -40.1947724095  TIP3      8617            0.0000000000
     50752      8818  TIP3      OH2           -30.5430466958       36.7898926797      -36.2761428543  TIP3      8618            0.0000000000
     50753      8818  TIP3      H1            -30.5481044318       37.7777555894      -36.2998897750  TIP3      8618            0.0000000000
     50754      8818  TIP3      H2            -31.2587926617       36.5385160298      -36.8838056982  TIP3      8618            0.0000000000
     50755      8819  TIP3      OH2           -30.8055131272       36.5274256573      -33.6674249297  TIP3      8619            0.0000000000
     50756      8819  TIP3      H1            -29.9447852262       36.2807618757      -33.3063177409  TIP3      8619            0.0000000000
     50757      8819  TIP3      H2            -30.6424313139       36.4162183793      -34.6300992245  TIP3      8619            0.0000000000
     50758      8820  TIP3      OH2           -20.2933001686       37.2501958975      -32.0268989640  TIP3      8620            0.0000000000
     50759      8820  TIP3      H1            -19.4993827458       36.7687541614      -32.3395145835  TIP3      8620            0.0000000000
     50760      8820  TIP3      H2            -19.8801116572       37.8906053390      -31.4274612371  TIP3      8620            0.0000000000
     50761      8821  TIP3      OH2           -37.5903473546       38.0186571620      -37.1656922554  TIP3      8621            0.0000000000
     50762      8821  TIP3      H1            -38.4533288160       38.0533818238      -36.7364324941  TIP3      8621            0.0000000000
     50763      8821  TIP3      H2            -37.4004019234       38.9750624681      -37.2804068635  TIP3      8621            0.0000000000
     50764      8822  TIP3      OH2           -21.5160186574       37.3092850207      -35.3643905073  TIP3      8622            0.0000000000
     50765      8822  TIP3      H1            -22.1761902566       37.2033861771      -36.0814381317  TIP3      8622            0.0000000000
     50766      8822  TIP3      H2            -21.2007102019       36.3776148228      -35.2493452754  TIP3      8622            0.0000000000
     50767      8823  TIP3      OH2           -22.4898864493       36.8039483220      -41.2634590646  TIP3      8623            0.0000000000
     50768      8823  TIP3      H1            -22.0944656524       37.6678133041      -41.0734257381  TIP3      8623            0.0000000000
     50769      8823  TIP3      H2            -23.4246840139       37.0860055501      -41.3693896764  TIP3      8623            0.0000000000
     50770      8824  TIP3      OH2           -35.4902571652       37.3727407783      -43.2705337997  TIP3      8624            0.0000000000
     50771      8824  TIP3      H1            -36.3156111409       37.1540131388      -43.7590224394  TIP3      8624            0.0000000000
     50772      8824  TIP3      H2            -34.9786149831       36.5503522289      -43.4210664108  TIP3      8624            0.0000000000
     50773      8825  TIP3      OH2           -36.5686372005       37.0331286439      -47.8544906792  TIP3      8625            0.0000000000
     50774      8825  TIP3      H1            -36.3237640453       37.6892047101      -48.5219336129  TIP3      8625            0.0000000000
     50775      8825  TIP3      H2            -36.8883711244       37.6465269484      -47.1553702606  TIP3      8625            0.0000000000
     50776      8826  TIP3      OH2           -30.7841783148       36.9980363558      -42.9358395596  TIP3      8626            0.0000000000
     50777      8826  TIP3      H1            -30.4971195886       37.7357914714      -43.5039355213  TIP3      8626            0.0000000000
     50778      8826  TIP3      H2            -31.4825614449       37.4444901193      -42.4423087220  TIP3      8626            0.0000000000
     50779      8827  TIP3      OH2           -25.1808217709       37.2539129733      -42.1007682386  TIP3      8627            0.0000000000
     50780      8827  TIP3      H1            -25.7054297957       37.4278274225      -42.8911610528  TIP3      8627            0.0000000000
     50781      8827  TIP3      H2            -25.6162762247       36.4482942096      -41.7623312075  TIP3      8627            0.0000000000
     50782      8828  TIP3      OH2           -23.7107690847       37.4015033345      -46.0823036172  TIP3      8628            0.0000000000
     50783      8828  TIP3      H1            -24.3282406587       37.2183899630      -46.8124568025  TIP3      8628            0.0000000000
     50784      8828  TIP3      H2            -23.9911033727       36.7088213840      -45.4390000129  TIP3      8628            0.0000000000
     50785      8829  TIP3      OH2           -33.7498514873       37.1248596863      -32.4877692466  TIP3      8629            0.0000000000
     50786      8829  TIP3      H1            -33.1475142669       36.5999942523      -33.0312361043  TIP3      8629            0.0000000000
     50787      8829  TIP3      H2            -33.9322076931       36.5303745141      -31.7359578522  TIP3      8629            0.0000000000
     50788      8830  TIP3      OH2           -25.0472033510       36.3752534935      -31.7415108552  TIP3      8630            0.0000000000
     50789      8830  TIP3      H1            -24.9431151785       36.0812109672      -30.8079837876  TIP3      8630            0.0000000000
     50790      8830  TIP3      H2            -24.1007095761       36.3590944678      -32.0142425185  TIP3      8630            0.0000000000
     50791      8831  TIP3      OH2           -11.3007935983       37.0035723796      -39.7547399308  TIP3      8631            0.0000000000
     50792      8831  TIP3      H1            -11.3176437211       36.2813802979      -40.4066535495  TIP3      8631            0.0000000000
     50793      8831  TIP3      H2            -12.2505541089       37.0826368921      -39.5323785076  TIP3      8631            0.0000000000
     50794      8832  TIP3      OH2            -2.5917610566       36.7799236585      -47.3388725168  TIP3      8632            0.0000000000
     50795      8832  TIP3      H1             -3.5129972228       36.8104692762      -46.9964751356  TIP3      8632            0.0000000000
     50796      8832  TIP3      H2             -2.4404409934       37.7572542828      -47.2639393938  TIP3      8632            0.0000000000
     50797      8833  TIP3      OH2           -13.8720995563       37.9352475585      -39.3553662931  TIP3      8633            0.0000000000
     50798      8833  TIP3      H1            -14.7645466882       37.8430062414      -39.7622413314  TIP3      8633            0.0000000000
     50799      8833  TIP3      H2            -13.7518859972       38.9114779472      -39.4074097095  TIP3      8633            0.0000000000
     50800      8834  TIP3      OH2            -8.8840253862       37.6712094748      -36.0174494954  TIP3      8634            0.0000000000
     50801      8834  TIP3      H1             -8.1313892486       37.3693911705      -35.4410109258  TIP3      8634            0.0000000000
     50802      8834  TIP3      H2             -9.5436183002       37.0080288681      -35.7626149920  TIP3      8634            0.0000000000
     50803      8835  TIP3      OH2           -16.4658567776       37.5302018880      -40.4366180983  TIP3      8635            0.0000000000
     50804      8835  TIP3      H1            -16.5429533487       37.4446260432      -41.4162739523  TIP3      8635            0.0000000000
     50805      8835  TIP3      H2            -16.7939024280       36.6610855420      -40.1371004457  TIP3      8635            0.0000000000
     50806      8836  TIP3      OH2           -11.5452811160       36.8184810596      -36.2871619100  TIP3      8636            0.0000000000
     50807      8836  TIP3      H1            -11.4850208339       37.7739310623      -36.5115189907  TIP3      8636            0.0000000000
     50808      8836  TIP3      H2            -12.4471150012       36.6267553988      -36.6223835801  TIP3      8636            0.0000000000
     50809      8837  TIP3      OH2           -12.2420426535       36.4997824370      -33.7315515825  TIP3      8637            0.0000000000
     50810      8837  TIP3      H1            -11.5094206642       36.0623007017      -33.2798553277  TIP3      8637            0.0000000000
     50811      8837  TIP3      H2            -11.8986262666       36.5438604546      -34.6550124423  TIP3      8637            0.0000000000
     50812      8838  TIP3      OH2            -1.7335148533       36.7939729558      -32.0572925513  TIP3      8638            0.0000000000
     50813      8838  TIP3      H1             -0.8574882519       36.5753391077      -32.4324069201  TIP3      8638            0.0000000000
     50814      8838  TIP3      H2             -1.5024710671       37.5563586955      -31.4996858817  TIP3      8638            0.0000000000
     50815      8839  TIP3      OH2           -19.1950859821       37.5477543550      -37.0351598912  TIP3      8639            0.0000000000
     50816      8839  TIP3      H1            -19.9390303124       37.5574875076      -36.4035562640  TIP3      8639            0.0000000000
     50817      8839  TIP3      H2            -19.1612075632       38.4878733887      -37.3166820138  TIP3      8639            0.0000000000
     50818      8840  TIP3      OH2            -2.9243564849       37.3547726378      -35.3282644298  TIP3      8640            0.0000000000
     50819      8840  TIP3      H1             -3.5464342138       37.2180743200      -36.0720916084  TIP3      8640            0.0000000000
     50820      8840  TIP3      H2             -2.3881060861       36.5278116372      -35.3839184844  TIP3      8640            0.0000000000
     50821      8841  TIP3      OH2            -3.5704218257       36.7659201575      -41.2595617465  TIP3      8641            0.0000000000
     50822      8841  TIP3      H1             -3.1937082242       37.6426573653      -41.0561268129  TIP3      8641            0.0000000000
     50823      8841  TIP3      H2             -4.4970155091       37.0204556686      -41.4175851476  TIP3      8641            0.0000000000
     50824      8842  TIP3      OH2           -16.8000161665       37.1984898543      -43.2073931077  TIP3      8642            0.0000000000
     50825      8842  TIP3      H1            -17.7001744517       37.0275244358      -43.5713549431  TIP3      8642            0.0000000000
     50826      8842  TIP3      H2            -16.3409754029       36.3705231880      -43.4453356870  TIP3      8642            0.0000000000
     50827      8843  TIP3      OH2           -17.6624532055       37.1319645234      -47.1438202021  TIP3      8643            0.0000000000
     50828      8843  TIP3      H1            -17.1457385742       37.9561687098      -46.9829374316  TIP3      8643            0.0000000000
     50829      8843  TIP3      H2            -18.3699428687       37.2539243731      -46.4842788114  TIP3      8643            0.0000000000
     50830      8844  TIP3      OH2           -11.9903733806       36.9408907885      -42.8824799717  TIP3      8644            0.0000000000
     50831      8844  TIP3      H1            -11.5976376775       37.6430527466      -43.4311382373  TIP3      8644            0.0000000000
     50832      8844  TIP3      H2            -12.7174253579       37.4643119797      -42.5230149615  TIP3      8644            0.0000000000
     50833      8845  TIP3      OH2            -6.3081900360       37.2886329178      -42.1078831314  TIP3      8645            0.0000000000
     50834      8845  TIP3      H1             -6.8044569048       37.3112270728      -42.9363799811  TIP3      8645            0.0000000000
     50835      8845  TIP3      H2             -6.7318964609       36.5148318999      -41.6883505424  TIP3      8645            0.0000000000
     50836      8846  TIP3      OH2            -4.9236212861       37.4238176241      -46.1267076758  TIP3      8646            0.0000000000
     50837      8846  TIP3      H1             -5.5899103782       37.1933931941      -46.8005618914  TIP3      8646            0.0000000000
     50838      8846  TIP3      H2             -5.1909505658       36.7889748286      -45.4275284683  TIP3      8646            0.0000000000
     50839      8847  TIP3      OH2           -14.8931018868       36.9726953566      -32.7231150314  TIP3      8647            0.0000000000
     50840      8847  TIP3      H1            -14.0370156122       36.5210642939      -32.8530338639  TIP3      8647            0.0000000000
     50841      8847  TIP3      H2            -15.2586225846       36.4794114353      -31.9547679986  TIP3      8647            0.0000000000
     50842      8848  TIP3      OH2            -6.3965130878       36.3248844831      -31.7431836251  TIP3      8648            0.0000000000
     50843      8848  TIP3      H1             -6.2543874968       36.0274343561      -30.8206461458  TIP3      8648            0.0000000000
     50844      8848  TIP3      H2             -5.4734807045       36.3472355410      -32.0689800662  TIP3      8648            0.0000000000
     50845      8849  TIP3      OH2             7.5285430321       36.9843748378      -39.6869713053  TIP3      8649            0.0000000000
     50846      8849  TIP3      H1              7.4058158704       36.2856757094      -40.3533347178  TIP3      8649            0.0000000000
     50847      8849  TIP3      H2              6.6196921273       37.1072118165      -39.3451350675  TIP3      8649            0.0000000000
     50848      8850  TIP3      OH2            16.2393817424       36.7402917430      -47.3426750123  TIP3      8650            0.0000000000
     50849      8850  TIP3      H1             15.3162488957       36.7294660960      -47.0121353381  TIP3      8650            0.0000000000
     50850      8850  TIP3      H2             16.3174450428       37.7238355239      -47.3069577607  TIP3      8650            0.0000000000
     50851      8851  TIP3      OH2             4.9713175132       37.9342304397      -39.3325364930  TIP3      8651            0.0000000000
     50852      8851  TIP3      H1              4.0396743384       37.8454788435      -39.6177934963  TIP3      8651            0.0000000000
     50853      8851  TIP3      H2              5.0956888172       38.9072346908      -39.4221829309  TIP3      8651            0.0000000000
     50854      8852  TIP3      OH2            10.0726651991       37.6034332515      -36.1520071668  TIP3      8652            0.0000000000
     50855      8852  TIP3      H1             10.7714081508       37.3325983706      -35.5130880427  TIP3      8652            0.0000000000
     50856      8852  TIP3      H2              9.3350769145       37.0557861194      -35.8375118299  TIP3      8652            0.0000000000
     50857      8853  TIP3      OH2             2.2641822106       37.4669573959      -40.4825832197  TIP3      8653            0.0000000000
     50858      8853  TIP3      H1              2.1817651561       37.3696817094      -41.4501500715  TIP3      8653            0.0000000000
     50859      8853  TIP3      H2              1.9846889198       36.5834026105      -40.1519664403  TIP3      8653            0.0000000000
     50860      8854  TIP3      OH2             7.4061480084       36.7767964993      -36.2029477439  TIP3      8654            0.0000000000
     50861      8854  TIP3      H1              7.3711494098       37.7166234861      -36.4878279523  TIP3      8654            0.0000000000
     50862      8854  TIP3      H2              6.5279373616       36.4702421355      -36.5017416301  TIP3      8654            0.0000000000
     50863      8855  TIP3      OH2             7.0096863150       36.6100990018      -33.5255971077  TIP3      8655            0.0000000000
     50864      8855  TIP3      H1              7.7842559305       36.1844641289      -33.1435552699  TIP3      8655            0.0000000000
     50865      8855  TIP3      H2              7.1915230204       36.5259517798      -34.4891981519  TIP3      8655            0.0000000000
     50866      8856  TIP3      OH2            17.2644345621       36.8676280849      -32.1573270643  TIP3      8656            0.0000000000
     50867      8856  TIP3      H1             18.1360215243       36.6696367460      -32.5624348582  TIP3      8656            0.0000000000
     50868      8856  TIP3      H2             17.5302805075       37.5678303807      -31.5436037729  TIP3      8656            0.0000000000
     50869      8857  TIP3      OH2            -0.4588995589       37.5092214223      -37.1671192196  TIP3      8657            0.0000000000
     50870      8857  TIP3      H1             -1.0647237081       37.6544147193      -36.4304341283  TIP3      8657            0.0000000000
     50871      8857  TIP3      H2             -0.2183879734       38.4327867427      -37.4046111681  TIP3      8657            0.0000000000
     50872      8858  TIP3      OH2            16.0572639070       37.3590095666      -35.4088251152  TIP3      8658            0.0000000000
     50873      8858  TIP3      H1             15.3994698117       37.2455488838      -36.1177889543  TIP3      8658            0.0000000000
     50874      8858  TIP3      H2             16.5759630901       36.5188971175      -35.5111429423  TIP3      8658            0.0000000000
     50875      8859  TIP3      OH2            15.2811888310       36.7981937836      -41.2995381280  TIP3      8659            0.0000000000
     50876      8859  TIP3      H1             15.6905670676       37.6485618088      -41.0650944097  TIP3      8659            0.0000000000
     50877      8859  TIP3      H2             14.3587308219       37.0898273203      -41.4140903105  TIP3      8659            0.0000000000
     50878      8860  TIP3      OH2             2.0125178144       37.1718900204      -43.4116442385  TIP3      8660            0.0000000000
     50879      8860  TIP3      H1              1.0991071255       37.0200847796      -43.7385806193  TIP3      8660            0.0000000000
     50880      8860  TIP3      H2              2.4323136154       36.3042774628      -43.5674990398  TIP3      8660            0.0000000000
     50881      8861  TIP3      OH2             1.3449184935       37.0739441873      -47.1670754476  TIP3      8661            0.0000000000
     50882      8861  TIP3      H1              1.8261466219       37.9304560530      -47.0726868405  TIP3      8661            0.0000000000
     50883      8861  TIP3      H2              0.6070876275       37.2859845469      -46.5616846371  TIP3      8661            0.0000000000
     50884      8862  TIP3      OH2             6.8772181606       36.9344518254      -42.9622553807  TIP3      8662            0.0000000000
     50885      8862  TIP3      H1              7.2597187179       37.7223013439      -43.3881408008  TIP3      8662            0.0000000000
     50886      8862  TIP3      H2              6.1140868044       37.3736617713      -42.5713542496  TIP3      8662            0.0000000000
     50887      8863  TIP3      OH2            12.4899157949       37.2535817157      -42.0680428474  TIP3      8663            0.0000000000
     50888      8863  TIP3      H1             12.1233967623       37.1910059149      -42.9646033747  TIP3      8663            0.0000000000
     50889      8863  TIP3      H2             12.0233437897       36.5030736549      -41.6631448298  TIP3      8663            0.0000000000
     50890      8864  TIP3      OH2            13.9517089056       37.4009842400      -46.0689962899  TIP3      8664            0.0000000000
     50891      8864  TIP3      H1             13.3295700624       37.1535781987      -46.7801740414  TIP3      8664            0.0000000000
     50892      8864  TIP3      H2             13.6336316580       36.7977328738      -45.3595807700  TIP3      8664            0.0000000000
     50893      8865  TIP3      OH2             3.9377733737       36.9869388875      -32.6919704450  TIP3      8665            0.0000000000
     50894      8865  TIP3      H1              4.8086028625       36.6041948402      -32.8941061285  TIP3      8665            0.0000000000
     50895      8865  TIP3      H2              3.5440020916       36.2408639183      -32.2030862439  TIP3      8665            0.0000000000
     50896      8866  TIP3      OH2            12.7768617068       36.3981973808      -31.8404114622  TIP3      8666            0.0000000000
     50897      8866  TIP3      H1             12.8088125374       36.0527828360      -30.9221665239  TIP3      8666            0.0000000000
     50898      8866  TIP3      H2             13.7239366688       36.4905232184      -32.0688072382  TIP3      8666            0.0000000000
     50899      8867  TIP3      OH2            26.4277755302       36.9317199792      -39.7043293680  TIP3      8667            0.0000000000
     50900      8867  TIP3      H1             26.4495474795       36.2300115214      -40.3811187912  TIP3      8667            0.0000000000
     50901      8867  TIP3      H2             25.4576298002       37.0308212749      -39.5642879639  TIP3      8667            0.0000000000
     50902      8868  TIP3      OH2            34.7676962559       36.8061085837      -47.4222927435  TIP3      8668            0.0000000000
     50903      8868  TIP3      H1             33.9422592772       36.8547274479      -46.8860816027  TIP3      8668            0.0000000000
     50904      8868  TIP3      H2             34.8465366991       37.7638956479      -47.6338923295  TIP3      8668            0.0000000000
     50905      8869  TIP3      OH2            23.8945166667       37.8654622080      -39.4105953977  TIP3      8669            0.0000000000
     50906      8869  TIP3      H1             22.9708971855       37.7715358530      -39.7147724268  TIP3      8669            0.0000000000
     50907      8869  TIP3      H2             23.9907825314       38.8485479517      -39.4131871251  TIP3      8669            0.0000000000
     50908      8870  TIP3      OH2            28.9387699450       37.5449785815      -36.0377769300  TIP3      8670            0.0000000000
     50909      8870  TIP3      H1             29.6367911432       37.2710632102      -35.4049481099  TIP3      8670            0.0000000000
     50910      8870  TIP3      H2             28.2764113249       36.8594859087      -35.8563884053  TIP3      8670            0.0000000000
     50911      8871  TIP3      OH2            21.0861759677       37.4627464248      -40.4192085262  TIP3      8671            0.0000000000
     50912      8871  TIP3      H1             20.9939217247       37.3428517637      -41.3861090941  TIP3      8671            0.0000000000
     50913      8871  TIP3      H2             20.8522435030       36.5680435593      -40.0899947879  TIP3      8671            0.0000000000
     50914      8872  TIP3      OH2            26.2302161803       36.7997489273      -36.0780769076  TIP3      8672            0.0000000000
     50915      8872  TIP3      H1             26.2914910451       37.7446847567      -36.3349222177  TIP3      8672            0.0000000000
     50916      8872  TIP3      H2             25.4103712894       36.5349508987      -36.5416232893  TIP3      8672            0.0000000000
     50917      8873  TIP3      OH2            25.7904890474       36.6727380544      -33.3166707195  TIP3      8673            0.0000000000
     50918      8873  TIP3      H1             26.5114360094       36.1464421042      -32.9485380695  TIP3      8673            0.0000000000
     50919      8873  TIP3      H2             25.9372597996       36.5415985349      -34.2785469849  TIP3      8673            0.0000000000
     50920      8874  TIP3      OH2            36.7491598221       36.5444108924      -31.8441891859  TIP3      8674            0.0000000000
     50921      8874  TIP3      H1             37.6684952058       36.3495175818      -32.0520037202  TIP3      8674            0.0000000000
     50922      8874  TIP3      H2             36.8897545413       37.3312246449      -31.2787041337  TIP3      8674            0.0000000000
     50923      8875  TIP3      OH2            18.4292872654       37.5246154207      -37.2764580992  TIP3      8675            0.0000000000
     50924      8875  TIP3      H1             17.7842492863       37.5796131495      -36.5556940750  TIP3      8675            0.0000000000
     50925      8875  TIP3      H2             18.6321148950       38.4720197249      -37.4413510524  TIP3      8675            0.0000000000
     50926      8876  TIP3      OH2            34.9906829594       37.2565213512      -35.3063078124  TIP3      8676            0.0000000000
     50927      8876  TIP3      H1             34.3939169979       37.2243076244      -36.0821629136  TIP3      8676            0.0000000000
     50928      8876  TIP3      H2             35.4212665986       36.3642457827      -35.3964982613  TIP3      8676            0.0000000000
     50929      8877  TIP3      OH2            34.0759085690       36.7102968766      -41.1679338143  TIP3      8677            0.0000000000
     50930      8877  TIP3      H1             34.4457520203       37.6122469358      -41.1592191600  TIP3      8677            0.0000000000
     50931      8877  TIP3      H2             33.1476044451       36.9357664921      -41.3952709175  TIP3      8677            0.0000000000
     50932      8878  TIP3      OH2            20.9490518822       37.1160727553      -43.2032267920  TIP3      8678            0.0000000000
     50933      8878  TIP3      H1             20.0957063299       36.9944944991      -43.6714495326  TIP3      8678            0.0000000000
     50934      8878  TIP3      H2             21.4174224454       36.2862815866      -43.4374012817  TIP3      8678            0.0000000000
     50935      8879  TIP3      OH2            20.0813059558       37.1122467957      -47.1676443429  TIP3      8679            0.0000000000
     50936      8879  TIP3      H1             20.5142587996       38.0028368737      -47.1698135776  TIP3      8679            0.0000000000
     50937      8879  TIP3      H2             19.3813935441       37.2952601817      -46.5169410519  TIP3      8679            0.0000000000
     50938      8880  TIP3      OH2            25.7552551505       36.9319364691      -42.8937644181  TIP3      8680            0.0000000000
     50939      8880  TIP3      H1             26.0980024336       37.7360110557      -43.3109373977  TIP3      8680            0.0000000000
     50940      8880  TIP3      H2             24.9897413710       37.3434813459      -42.4743968090  TIP3      8680            0.0000000000
     50941      8881  TIP3      OH2            31.5669435338       37.3909677392      -41.9217434871  TIP3      8681            0.0000000000
     50942      8881  TIP3      H1             31.3880123985       37.1111203699      -42.8283035818  TIP3      8681            0.0000000000
     50943      8881  TIP3      H2             30.9662694827       36.7736755477      -41.4354961682  TIP3      8681            0.0000000000
     50944      8882  TIP3      OH2            32.6529009753       37.4880759091      -46.0168789549  TIP3      8682            0.0000000000
     50945      8882  TIP3      H1             31.9337188715       37.3179365865      -46.6563752371  TIP3      8682            0.0000000000
     50946      8882  TIP3      H2             32.3577720065       36.8593882456      -45.3244147208  TIP3      8682            0.0000000000
     50947      8883  TIP3      OH2            22.9388719176       37.0240601123      -32.8509418936  TIP3      8683            0.0000000000
     50948      8883  TIP3      H1             23.8422618397       36.6717635492      -32.9512499794  TIP3      8683            0.0000000000
     50949      8883  TIP3      H2             22.5993508909       36.5077693496      -32.0765476574  TIP3      8683            0.0000000000
     50950      8884  TIP3      OH2            31.7198411269       36.4512797146      -31.6738180984  TIP3      8684            0.0000000000
     50951      8884  TIP3      H1             31.8253046969       36.2078782786      -30.7358891526  TIP3      8684            0.0000000000
     50952      8884  TIP3      H2             32.6491606163       36.3612783297      -31.9924793997  TIP3      8684            0.0000000000
     50953      8885  TIP3      OH2            36.3770083873       37.6702427955      -37.7176039093  TIP3      8685            0.0000000000
     50954      8885  TIP3      H1             36.3531708568       37.7185264646      -36.7488790813  TIP3      8685            0.0000000000
     50955      8885  TIP3      H2             36.4893883050       38.6045495955      -37.9531006149  TIP3      8685            0.0000000000
     50956      8886  TIP3      OH2           -26.2906366642      -28.4522928716      -24.0200617892  TIP3      8686            0.0000000000
     50957      8886  TIP3      H1            -26.3997282356      -27.4939375126      -24.1792204820  TIP3      8686            0.0000000000
     50958      8886  TIP3      H2            -26.9622762487      -28.7916709599      -24.6370762249  TIP3      8686            0.0000000000
     50959      8887  TIP3      OH2           -23.8462685621      -25.7260996275      -22.6446610197  TIP3      8687            0.0000000000
     50960      8887  TIP3      H1            -24.3918710160      -26.4938563472      -22.4427482766  TIP3      8687            0.0000000000
     50961      8887  TIP3      H2            -23.4629517405      -25.5064736137      -21.7854604670  TIP3      8687            0.0000000000
     50962      8888  TIP3      OH2           -33.6721413314      -24.9922662019      -21.2010841531  TIP3      8688            0.0000000000
     50963      8888  TIP3      H1            -34.2786850548      -25.6995506927      -21.5291654257  TIP3      8688            0.0000000000
     50964      8888  TIP3      H2            -32.9099397345      -25.5524706030      -21.0370512589  TIP3      8688            0.0000000000
     50965      8889  TIP3      OH2           -36.9000414627      -31.1538130244      -25.8944231099  TIP3      8689            0.0000000000
     50966      8889  TIP3      H1            -37.0523614569      -30.4754063000      -25.2145412678  TIP3      8689            0.0000000000
     50967      8889  TIP3      H2            -37.7874560666      -31.5601479665      -25.8725972409  TIP3      8689            0.0000000000
     50968      8890  TIP3      OH2           -36.7166392660      -29.3793382056      -23.7275956416  TIP3      8690            0.0000000000
     50969      8890  TIP3      H1            -36.5364019360      -30.1884231231      -23.2141308272  TIP3      8690            0.0000000000
     50970      8890  TIP3      H2            -35.8456292313      -29.1252239464      -24.0570636416  TIP3      8690            0.0000000000
     50971      8891  TIP3      OH2           -24.5605887404      -34.1984853120      -24.1860759146  TIP3      8691            0.0000000000
     50972      8891  TIP3      H1            -24.1679087612      -34.6634742226      -24.9411251385  TIP3      8691            0.0000000000
     50973      8891  TIP3      H2            -25.0333963018      -33.4744007300      -24.6164441731  TIP3      8691            0.0000000000
     50974      8892  TIP3      OH2           -36.1462719870      -31.9042744478      -22.3857717260  TIP3      8692            0.0000000000
     50975      8892  TIP3      H1            -35.4109109017      -31.8095892071      -21.7629470864  TIP3      8692            0.0000000000
     50976      8892  TIP3      H2            -36.0659491294      -32.8152860814      -22.7408314053  TIP3      8692            0.0000000000
     50977      8893  TIP3      OH2           -31.0508326069      -30.1054264529      -22.7537678685  TIP3      8693            0.0000000000
     50978      8893  TIP3      H1            -30.2981989332      -30.5172706871      -22.2750958612  TIP3      8693            0.0000000000
     50979      8893  TIP3      H2            -31.4350856852      -30.9260554834      -23.1203227952  TIP3      8693            0.0000000000
     50980      8894  TIP3      OH2           -26.8929237933      -25.9181231203      -25.2943211863  TIP3      8694            0.0000000000
     50981      8894  TIP3      H1            -26.9645925138      -26.1508738557      -26.2471136007  TIP3      8694            0.0000000000
     50982      8894  TIP3      H2            -26.7241763749      -24.9774779855      -25.3669355026  TIP3      8694            0.0000000000
     50983      8895  TIP3      OH2           -37.1454609791      -26.2863133590      -27.1715645232  TIP3      8695            0.0000000000
     50984      8895  TIP3      H1            -37.2088100580      -25.7462492081      -27.9921036005  TIP3      8695            0.0000000000
     50985      8895  TIP3      H2            -36.8286386971      -25.6183186705      -26.5258645756  TIP3      8695            0.0000000000
     50986      8896  TIP3      OH2           -23.3296600677      -24.8080179080      -25.4549049903  TIP3      8696            0.0000000000
     50987      8896  TIP3      H1            -24.1094790605      -25.2245092691      -25.8582862560  TIP3      8696            0.0000000000
     50988      8896  TIP3      H2            -23.5249842432      -24.9076314441      -24.4984561348  TIP3      8696            0.0000000000
     50989      8897  TIP3      OH2           -27.6024958586      -29.1899630724      -26.5657533576  TIP3      8697            0.0000000000
     50990      8897  TIP3      H1            -28.4899318726      -28.8340396939      -26.7352287583  TIP3      8697            0.0000000000
     50991      8897  TIP3      H2            -27.1375783755      -28.9986234218      -27.4025636191  TIP3      8697            0.0000000000
     50992      8898  TIP3      OH2           -27.5705274418      -30.1733546083      -29.6174704367  TIP3      8698            0.0000000000
     50993      8898  TIP3      H1            -26.6863210150      -30.1580011996      -29.1915222668  TIP3      8698            0.0000000000
     50994      8898  TIP3      H2            -27.4679427713      -30.9277910787      -30.2225314141  TIP3      8698            0.0000000000
     50995      8899  TIP3      OH2           -24.0157031870      -28.7502448341      -25.9381370911  TIP3      8699            0.0000000000
     50996      8899  TIP3      H1            -24.7489237317      -28.7513688471      -25.2830126764  TIP3      8699            0.0000000000
     50997      8899  TIP3      H2            -23.3549059816      -29.3245676493      -25.4966674260  TIP3      8699            0.0000000000
     50998      8900  TIP3      OH2           -32.4987815024      -27.8733569950      -23.5770350366  TIP3      8700            0.0000000000
     50999      8900  TIP3      H1            -32.9353159040      -28.3043784861      -24.3429057837  TIP3      8700            0.0000000000
     51000      8900  TIP3      H2            -31.9736500123      -28.6280984019      -23.2183017432  TIP3      8700            0.0000000000
     51001      8901  TIP3      OH2           -25.2044253730      -29.7850880645      -28.2406444460  TIP3      8701            0.0000000000
     51002      8901  TIP3      H1            -24.7511404926      -29.4012141897      -27.4674274974  TIP3      8701            0.0000000000
     51003      8901  TIP3      H2            -24.7730884958      -29.2456003428      -28.9438222621  TIP3      8701            0.0000000000
     51004      8902  TIP3      OH2           -21.3813969453      -37.4597177042      -28.1396485513  TIP3      8702            0.0000000000
     51005      8902  TIP3      H1            -22.2634553473      -37.0896089390      -27.9611415209  TIP3      8702            0.0000000000
     51006      8902  TIP3      H2            -20.9619711759      -36.7164588836      -28.6332455482  TIP3      8702            0.0000000000
     51007      8903  TIP3      OH2           -33.9696221487      -29.1894799091      -25.7271480320  TIP3      8703            0.0000000000
     51008      8903  TIP3      H1            -34.1802493886      -28.4447665369      -26.3352122850  TIP3      8703            0.0000000000
     51009      8903  TIP3      H2            -34.3513708502      -29.9467919612      -26.1917711821  TIP3      8703            0.0000000000
     51010      8904  TIP3      OH2           -20.4266879446      -23.8063155446      -29.4144406116  TIP3      8704            0.0000000000
     51011      8904  TIP3      H1            -20.1317796493      -22.8636978387      -29.3979388195  TIP3      8704            0.0000000000
     51012      8904  TIP3      H2            -19.5452321870      -24.2310632299      -29.4706541394  TIP3      8704            0.0000000000
     51013      8905  TIP3      OH2           -37.7002974210      -23.8971043635      -20.9698557840  TIP3      8705            0.0000000000
     51014      8905  TIP3      H1            -37.4120039308      -24.6141094439      -20.3959482966  TIP3      8705            0.0000000000
     51015      8905  TIP3      H2            -37.0717021536      -23.1833788426      -20.7984702808  TIP3      8705            0.0000000000
     51016      8906  TIP3      OH2           -34.3596372568      -21.6613167173      -24.5531271141  TIP3      8706            0.0000000000
     51017      8906  TIP3      H1            -34.2151706854      -21.8781876095      -23.6061748268  TIP3      8706            0.0000000000
     51018      8906  TIP3      H2            -35.3308882976      -21.6778897338      -24.6125102847  TIP3      8706            0.0000000000
     51019      8907  TIP3      OH2           -23.7407796824      -28.5646648674      -30.1016393957  TIP3      8707            0.0000000000
     51020      8907  TIP3      H1            -24.1764405361      -28.6849493543      -30.9676262750  TIP3      8707            0.0000000000
     51021      8907  TIP3      H2            -22.8856161099      -28.9492913213      -30.3437992718  TIP3      8707            0.0000000000
     51022      8908  TIP3      OH2           -28.3377808459      -35.0244961837      -29.7002652579  TIP3      8708            0.0000000000
     51023      8908  TIP3      H1            -28.9408036404      -35.3642418776      -29.0079377869  TIP3      8708            0.0000000000
     51024      8908  TIP3      H2            -28.8903990090      -35.1247429582      -30.4898607149  TIP3      8708            0.0000000000
     51025      8909  TIP3      OH2           -32.1424763333      -32.2262050911      -24.0959535537  TIP3      8709            0.0000000000
     51026      8909  TIP3      H1            -33.0484685099      -32.0494333210      -24.3486334953  TIP3      8709            0.0000000000
     51027      8909  TIP3      H2            -31.7092744257      -32.3471488439      -24.9643471089  TIP3      8709            0.0000000000
     51028      8910  TIP3      OH2           -26.6242171069      -31.7444258636      -25.8924208034  TIP3      8710            0.0000000000
     51029      8910  TIP3      H1            -26.9258516244      -30.8465053621      -26.1484478964  TIP3      8710            0.0000000000
     51030      8910  TIP3      H2            -25.8548632895      -31.8804425320      -26.4819711625  TIP3      8710            0.0000000000
     51031      8911  TIP3      OH2           -31.7706101118      -34.2962545041      -30.6654625708  TIP3      8711            0.0000000000
     51032      8911  TIP3      H1            -32.0707165218      -35.0010604771      -30.0755584238  TIP3      8711            0.0000000000
     51033      8911  TIP3      H2            -32.5434460871      -34.1065015778      -31.2153790071  TIP3      8711            0.0000000000
     51034      8912  TIP3      OH2           -29.4484591468      -34.2996038356      -23.1074183488  TIP3      8712            0.0000000000
     51035      8912  TIP3      H1            -30.2966982030      -34.6617066405      -23.4128413517  TIP3      8712            0.0000000000
     51036      8912  TIP3      H2            -29.4980209604      -34.5378763692      -22.1748030011  TIP3      8712            0.0000000000
     51037      8913  TIP3      OH2           -31.3615645560      -32.3797154883      -27.0042981910  TIP3      8713            0.0000000000
     51038      8913  TIP3      H1            -30.9649995256      -33.2229501070      -27.2778854491  TIP3      8713            0.0000000000
     51039      8913  TIP3      H2            -31.8639534718      -32.1231695986      -27.7900449431  TIP3      8713            0.0000000000
     51040      8914  TIP3      OH2           -32.7480094407      -31.2208730936      -29.6148558259  TIP3      8714            0.0000000000
     51041      8914  TIP3      H1            -32.9963819833      -31.6067699063      -30.4823299785  TIP3      8714            0.0000000000
     51042      8914  TIP3      H2            -31.8045167916      -31.0318351235      -29.8143881315  TIP3      8714            0.0000000000
     51043      8915  TIP3      OH2           -28.9564213235      -31.5434316799      -21.6678173097  TIP3      8715            0.0000000000
     51044      8915  TIP3      H1            -29.3005236350      -32.2960274454      -22.1633781294  TIP3      8715            0.0000000000
     51045      8915  TIP3      H2            -28.8575792570      -31.9269784325      -20.7878929232  TIP3      8715            0.0000000000
     51046      8916  TIP3      OH2           -29.4832000805      -26.6287349009      -27.5069775694  TIP3      8716            0.0000000000
     51047      8916  TIP3      H1            -30.0674171104      -27.3413304783      -27.8573163136  TIP3      8716            0.0000000000
     51048      8916  TIP3      H2            -29.8770933408      -26.5183803436      -26.6082012397  TIP3      8716            0.0000000000
     51049      8917  TIP3      OH2           -25.8548415902      -34.1381856640      -29.3320796169  TIP3      8717            0.0000000000
     51050      8917  TIP3      H1            -26.8302987785      -34.0266895839      -29.3642619257  TIP3      8717            0.0000000000
     51051      8917  TIP3      H2            -25.5166105446      -33.5105549748      -28.6560890349  TIP3      8717            0.0000000000
     51052      8918  TIP3      OH2           -24.6541694997      -32.4600038856      -27.6201596402  TIP3      8718            0.0000000000
     51053      8918  TIP3      H1            -23.7816078570      -32.4704550362      -27.1751811079  TIP3      8718            0.0000000000
     51054      8918  TIP3      H2            -24.6353570954      -31.6399779976      -28.1551538271  TIP3      8718            0.0000000000
     51055      8919  TIP3      OH2           -34.5414150663      -27.3545617725      -21.9485498699  TIP3      8719            0.0000000000
     51056      8919  TIP3      H1            -33.9309067944      -27.5152672348      -22.6989036850  TIP3      8719            0.0000000000
     51057      8919  TIP3      H2            -34.6505544323      -28.2393947983      -21.5697062024  TIP3      8719            0.0000000000
     51058      8920  TIP3      OH2           -26.8671169501      -26.1839004444      -27.9585305790  TIP3      8720            0.0000000000
     51059      8920  TIP3      H1            -27.1317039207      -25.2953537890      -28.2115936524  TIP3      8720            0.0000000000
     51060      8920  TIP3      H2            -27.7645813525      -26.5939396225      -27.9500310473  TIP3      8720            0.0000000000
     51061      8921  TIP3      OH2           -20.4034853742      -32.0220315047      -27.8570808300  TIP3      8721            0.0000000000
     51062      8921  TIP3      H1            -20.8240016762      -32.2384744014      -28.7182127744  TIP3      8721            0.0000000000
     51063      8921  TIP3      H2            -20.1175728647      -31.0866326131      -27.9872729667  TIP3      8721            0.0000000000
     51064      8922  TIP3      OH2           -22.4431590285      -23.1952964081      -27.7501744369  TIP3      8722            0.0000000000
     51065      8922  TIP3      H1            -22.5952291964      -23.7935588538      -26.9938937827  TIP3      8722            0.0000000000
     51066      8922  TIP3      H2            -21.6651713707      -23.5744968817      -28.2116980159  TIP3      8722            0.0000000000
     51067      8923  TIP3      OH2           -31.8669317360      -23.9531165403      -24.5282790238  TIP3      8723            0.0000000000
     51068      8923  TIP3      H1            -31.7256182248      -23.0131914812      -24.7703330113  TIP3      8723            0.0000000000
     51069      8923  TIP3      H2            -32.8307694337      -23.9844802650      -24.5223854701  TIP3      8723            0.0000000000
     51070      8924  TIP3      OH2           -36.1051729896      -29.0470095415      -29.6666029200  TIP3      8724            0.0000000000
     51071      8924  TIP3      H1            -35.6290909847      -28.3821257249      -29.1248841266  TIP3      8724            0.0000000000
     51072      8924  TIP3      H2            -36.9123628999      -29.1805630833      -29.1457032737  TIP3      8724            0.0000000000
     51073      8925  TIP3      OH2           -30.5871103236      -26.5348498015      -25.0484235517  TIP3      8725            0.0000000000
     51074      8925  TIP3      H1            -31.0329042234      -25.6941503472      -24.8069124437  TIP3      8725            0.0000000000
     51075      8925  TIP3      H2            -31.0710619472      -27.1857261166      -24.5155788315  TIP3      8725            0.0000000000
     51076      8926  TIP3      OH2           -31.7948781434      -21.2939223526      -25.2838124785  TIP3      8726            0.0000000000
     51077      8926  TIP3      H1            -32.7627493396      -21.3566818693      -25.1233222826  TIP3      8726            0.0000000000
     51078      8926  TIP3      H2            -31.6372529846      -20.3536568920      -25.0547011115  TIP3      8726            0.0000000000
     51079      8927  TIP3      OH2           -24.1413105467      -25.3220475106      -29.6432360047  TIP3      8727            0.0000000000
     51080      8927  TIP3      H1            -24.2229052996      -25.6805523018      -28.7282723427  TIP3      8727            0.0000000000
     51081      8927  TIP3      H2            -24.9973510810      -25.6120038085      -30.0178364367  TIP3      8727            0.0000000000
     51082      8928  TIP3      OH2           -19.7961964428      -21.1912431866      -29.1909813863  TIP3      8728            0.0000000000
     51083      8928  TIP3      H1            -19.3779776152      -20.5505768971      -29.7798254113  TIP3      8728            0.0000000000
     51084      8928  TIP3      H2            -20.4691925566      -20.6528876065      -28.7163901845  TIP3      8728            0.0000000000
     51085      8929  TIP3      OH2           -23.5126582317      -26.6050023564      -27.4595509149  TIP3      8729            0.0000000000
     51086      8929  TIP3      H1            -23.6973509694      -27.4908046666      -27.0699009246  TIP3      8729            0.0000000000
     51087      8929  TIP3      H2            -23.0293246462      -26.1655254781      -26.7365652809  TIP3      8729            0.0000000000
     51088      8930  TIP3      OH2           -30.0525649098      -23.9690633051      -31.2135714091  TIP3      8730            0.0000000000
     51089      8930  TIP3      H1            -30.2771379890      -24.6286466660      -31.8999455317  TIP3      8730            0.0000000000
     51090      8930  TIP3      H2            -30.7407232390      -24.1657276240      -30.5519811573  TIP3      8730            0.0000000000
     51091      8931  TIP3      OH2           -31.4650708192      -24.8871898332      -28.6396012402  TIP3      8731            0.0000000000
     51092      8931  TIP3      H1            -30.7018537920      -25.2929363854      -28.1799487673  TIP3      8731            0.0000000000
     51093      8931  TIP3      H2            -31.3415713582      -23.9408288099      -28.3831517348  TIP3      8731            0.0000000000
     51094      8932  TIP3      OH2           -34.7348606120      -27.3860551294      -27.9505141810  TIP3      8732            0.0000000000
     51095      8932  TIP3      H1            -35.5180982469      -26.8608078424      -27.6737885568  TIP3      8732            0.0000000000
     51096      8932  TIP3      H2            -34.3305715024      -26.7872342692      -28.6006380101  TIP3      8732            0.0000000000
     51097      8933  TIP3      OH2           -26.3955259661      -35.3368245243      -26.8300576447  TIP3      8733            0.0000000000
     51098      8933  TIP3      H1            -26.7561539889      -35.2620485230      -27.7314738217  TIP3      8733            0.0000000000
     51099      8933  TIP3      H2            -26.5161996138      -34.4197375467      -26.5464102838  TIP3      8733            0.0000000000
     51100      8934  TIP3      OH2           -28.7871162954      -33.5717435956      -25.6793518790  TIP3      8734            0.0000000000
     51101      8934  TIP3      H1            -28.1505386113      -32.8286791808      -25.7336599892  TIP3      8734            0.0000000000
     51102      8934  TIP3      H2            -29.0263764678      -33.5626765630      -24.7281470348  TIP3      8734            0.0000000000
     51103      8935  TIP3      OH2           -28.1366474050      -36.5098063877      -24.9790105032  TIP3      8735            0.0000000000
     51104      8935  TIP3      H1            -28.3315581450      -35.6235884476      -24.6546840143  TIP3      8735            0.0000000000
     51105      8935  TIP3      H2            -27.3988523362      -36.3580149450      -25.6036416132  TIP3      8735            0.0000000000
     51106      8936  TIP3      OH2           -30.9111726236      -22.3487863356      -28.1711415845  TIP3      8736            0.0000000000
     51107      8936  TIP3      H1            -31.2429688154      -21.7982113351      -28.9009078438  TIP3      8736            0.0000000000
     51108      8936  TIP3      H2            -31.1700763659      -21.8156089094      -27.3875813604  TIP3      8736            0.0000000000
     51109      8937  TIP3      OH2           -34.0214756190      -24.8037626541      -29.6466806854  TIP3      8737            0.0000000000
     51110      8937  TIP3      H1            -33.2321057898      -24.6968427250      -29.0761607472  TIP3      8737            0.0000000000
     51111      8937  TIP3      H2            -33.6437564995      -25.4319358953      -30.2926924268  TIP3      8737            0.0000000000
     51112      8938  TIP3      OH2           -36.3030676702      -23.8559346972      -26.0134515277  TIP3      8738            0.0000000000
     51113      8938  TIP3      H1            -37.0751027999      -23.3218621089      -25.8162342141  TIP3      8738            0.0000000000
     51114      8938  TIP3      H2            -35.7496405901      -23.1628538773      -26.4237915718  TIP3      8738            0.0000000000
     51115      8939  TIP3      OH2           -27.9347018355      -22.1385991600      -31.1742143730  TIP3      8739            0.0000000000
     51116      8939  TIP3      H1            -28.6287447955      -22.8317931114      -31.1194456233  TIP3      8739            0.0000000000
     51117      8939  TIP3      H2            -27.2728969096      -22.5859291378      -31.7509163302  TIP3      8739            0.0000000000
     51118      8940  TIP3      OH2           -23.7418963754      -22.6301765269      -31.0031697781  TIP3      8740            0.0000000000
     51119      8940  TIP3      H1            -23.4409206726      -23.0663632758      -30.1806623619  TIP3      8740            0.0000000000
     51120      8940  TIP3      H2            -22.9214693944      -22.5587661048      -31.5289258480  TIP3      8740            0.0000000000
     51121      8941  TIP3      OH2           -32.6225424864      -26.6892313752      -31.0642559605  TIP3      8741            0.0000000000
     51122      8941  TIP3      H1            -32.3206004319      -27.1399313064      -30.2596790491  TIP3      8741            0.0000000000
     51123      8941  TIP3      H2            -31.7574415512      -26.5593523850      -31.5052810758  TIP3      8741            0.0000000000
     51124      8942  TIP3      OH2           -26.7780086527      -25.5896868385      -31.0613731410  TIP3      8742            0.0000000000
     51125      8942  TIP3      H1            -27.6951631828      -25.5221455880      -30.7513734005  TIP3      8742            0.0000000000
     51126      8942  TIP3      H2            -26.8572096227      -26.4817260056      -31.4997590695  TIP3      8742            0.0000000000
     51127      8943  TIP3      OH2           -31.1128308042      -28.7537621926      -28.4540391759  TIP3      8743            0.0000000000
     51128      8943  TIP3      H1            -31.8764486843      -29.2511198441      -28.1287386504  TIP3      8743            0.0000000000
     51129      8943  TIP3      H2            -30.8230571552      -29.2901046839      -29.2307194993  TIP3      8743            0.0000000000
     51130      8944  TIP3      OH2           -30.3012795104      -30.4063824975      -30.4010249957  TIP3      8744            0.0000000000
     51131      8944  TIP3      H1            -30.1019673108      -30.1661209998      -31.3220537509  TIP3      8744            0.0000000000
     51132      8944  TIP3      H2            -29.3967920675      -30.3321876146      -30.0023792899  TIP3      8744            0.0000000000
     51133      8945  TIP3      OH2           -21.1107730197      -27.9561232764      -31.2021404815  TIP3      8745            0.0000000000
     51134      8945  TIP3      H1            -21.2988230887      -28.4322354522      -32.0425555108  TIP3      8745            0.0000000000
     51135      8945  TIP3      H2            -20.6073059215      -27.2079887873      -31.5742304895  TIP3      8745            0.0000000000
     51136      8946  TIP3      OH2           -36.7257937873      -25.0991360535      -29.5408287487  TIP3      8746            0.0000000000
     51137      8946  TIP3      H1            -35.7851010032      -24.8637717931      -29.6434777942  TIP3      8746            0.0000000000
     51138      8946  TIP3      H2            -36.8776253946      -25.6023096646      -30.3652389517  TIP3      8746            0.0000000000
     51139      8947  TIP3      OH2           -37.6453977421      -19.9692179932      -25.3366175586  TIP3      8747            0.0000000000
     51140      8947  TIP3      H1            -38.5330767539      -19.5768589177      -25.2718764138  TIP3      8747            0.0000000000
     51141      8947  TIP3      H2            -37.5725728288      -20.4427137572      -24.4994580927  TIP3      8747            0.0000000000
     51142      8948  TIP3      OH2           -36.7411855219      -21.8264267215      -23.1786283558  TIP3      8748            0.0000000000
     51143      8948  TIP3      H1            -36.2736995922      -22.6767307670      -23.0735059940  TIP3      8748            0.0000000000
     51144      8948  TIP3      H2            -36.3801309412      -21.3269597620      -22.4098757317  TIP3      8748            0.0000000000
     51145      8949  TIP3      OH2           -20.5938478091      -27.0940971921      -27.6573935008  TIP3      8749            0.0000000000
     51146      8949  TIP3      H1            -19.7541196472      -26.6677067191      -27.3741659159  TIP3      8749            0.0000000000
     51147      8949  TIP3      H2            -20.8290751370      -27.5553721841      -26.8254923407  TIP3      8749            0.0000000000
     51148      8950  TIP3      OH2           -20.4347423981      -28.8986195501      -25.2898006999  TIP3      8750            0.0000000000
     51149      8950  TIP3      H1            -21.0537633451      -29.1213076321      -24.5813210396  TIP3      8750            0.0000000000
     51150      8950  TIP3      H2            -19.6169461162      -28.6822701013      -24.7896506460  TIP3      8750            0.0000000000
     51151      8951  TIP3      OH2           -20.1251272877      -26.1726015639      -20.5435941871  TIP3      8751            0.0000000000
     51152      8951  TIP3      H1            -19.2799080190      -26.4905366039      -20.9226261322  TIP3      8751            0.0000000000
     51153      8951  TIP3      H2            -19.8383329419      -25.9561639133      -19.6392185074  TIP3      8751            0.0000000000
     51154      8952  TIP3      OH2           -19.7558955541      -29.4452442825      -28.8440719699  TIP3      8752            0.0000000000
     51155      8952  TIP3      H1            -20.5339849858      -29.4632905802      -29.4288705452  TIP3      8752            0.0000000000
     51156      8952  TIP3      H2            -19.9920875048      -28.7213119016      -28.2294697893  TIP3      8752            0.0000000000
     51157      8953  TIP3      OH2           -21.8192251756      -31.8410061412      -30.3406578591  TIP3      8753            0.0000000000
     51158      8953  TIP3      H1            -21.2573358451      -31.4658396667      -31.0416030455  TIP3      8753            0.0000000000
     51159      8953  TIP3      H2            -21.9334394240      -32.7743634898      -30.6546752777  TIP3      8753            0.0000000000
     51160      8954  TIP3      OH2           -22.5168746192      -30.6862122426      -24.5256159913  TIP3      8754            0.0000000000
     51161      8954  TIP3      H1            -22.3425990649      -31.4712979772      -25.0957512347  TIP3      8754            0.0000000000
     51162      8954  TIP3      H2            -22.0003262879      -30.8680251570      -23.7476224947  TIP3      8754            0.0000000000
     51163      8955  TIP3      OH2           -36.0169309924      -29.4671620630      -20.3057116556  TIP3      8755            0.0000000000
     51164      8955  TIP3      H1            -36.4485367218      -28.8883867821      -20.9410768248  TIP3      8755            0.0000000000
     51165      8955  TIP3      H2            -36.2117196765      -29.0299815928      -19.4562602768  TIP3      8755            0.0000000000
     51166      8956  TIP3      OH2           -22.2225269225      -34.3171587706      -31.0687113019  TIP3      8756            0.0000000000
     51167      8956  TIP3      H1            -21.7621746854      -35.0307917698      -30.5918958744  TIP3      8756            0.0000000000
     51168      8956  TIP3      H2            -23.1412447614      -34.6540241628      -31.1479415041  TIP3      8756            0.0000000000
     51169      8957  TIP3      OH2           -22.3533530355      -32.8185198635      -26.2075174807  TIP3      8757            0.0000000000
     51170      8957  TIP3      H1            -22.1524075675      -33.7467743218      -25.9673649090  TIP3      8757            0.0000000000
     51171      8957  TIP3      H2            -21.6368570706      -32.6235500964      -26.8517322944  TIP3      8757            0.0000000000
     51172      8958  TIP3      OH2           -22.0143050992      -35.5425376454      -25.6161867199  TIP3      8758            0.0000000000
     51173      8958  TIP3      H1            -21.3193415373      -36.2211578699      -25.6590541512  TIP3      8758            0.0000000000
     51174      8958  TIP3      H2            -22.7057802356      -35.9222210680      -26.2030731237  TIP3      8758            0.0000000000
     51175      8959  TIP3      OH2           -37.3705548335      -31.9640445354      -19.4554984716  TIP3      8759            0.0000000000
     51176      8959  TIP3      H1            -36.9366729398      -31.9399156543      -20.3117954193  TIP3      8759            0.0000000000
     51177      8959  TIP3      H2            -37.0838886843      -31.1295263220      -19.0495063368  TIP3      8759            0.0000000000
     51178      8960  TIP3      OH2           -20.0627257127      -35.5803711378      -29.4662007410  TIP3      8760            0.0000000000
     51179      8960  TIP3      H1            -19.7061596470      -36.1932615446      -30.1538816785  TIP3      8760            0.0000000000
     51180      8960  TIP3      H2            -19.3781152981      -34.8962541303      -29.4216775891  TIP3      8760            0.0000000000
     51181      8961  TIP3      OH2           -35.6596606195      -21.0461139114      -20.9110178986  TIP3      8761            0.0000000000
     51182      8961  TIP3      H1            -35.3627951845      -21.0419379966      -19.9682049107  TIP3      8761            0.0000000000
     51183      8961  TIP3      H2            -34.9027937948      -21.5687390829      -21.2843763972  TIP3      8761            0.0000000000
     51184      8962  TIP3      OH2           -33.6788695144      -22.4063870880      -21.9873427075  TIP3      8762            0.0000000000
     51185      8962  TIP3      H1            -33.6685723942      -23.3437367541      -21.6761140477  TIP3      8762            0.0000000000
     51186      8962  TIP3      H2            -32.7467016747      -22.1935614786      -21.7534751548  TIP3      8762            0.0000000000
     51187      8963  TIP3      OH2           -31.1331336844      -22.0356364818      -21.0957712374  TIP3      8763            0.0000000000
     51188      8963  TIP3      H1            -30.2520294530      -22.1817427868      -21.4617618695  TIP3      8763            0.0000000000
     51189      8963  TIP3      H2            -30.9578879519      -21.7943269513      -20.1807579426  TIP3      8763            0.0000000000
     51190      8964  TIP3      OH2           -22.8785322138      -37.3743903340      -22.5199134849  TIP3      8764            0.0000000000
     51191      8964  TIP3      H1            -21.9661787400      -37.1738197612      -22.7523466723  TIP3      8764            0.0000000000
     51192      8964  TIP3      H2            -23.2971709871      -37.3327000751      -23.3947345747  TIP3      8764            0.0000000000
     51193      8965  TIP3      OH2           -36.8254028190      -36.8529730895      -28.9174407002  TIP3      8765            0.0000000000
     51194      8965  TIP3      H1            -37.2602169179      -37.6706463294      -29.2151518335  TIP3      8765            0.0000000000
     51195      8965  TIP3      H2            -36.7799679372      -37.0085024445      -27.9567576199  TIP3      8765            0.0000000000
     51196      8966  TIP3      OH2           -30.9903326207      -36.9232477708      -24.2345797757  TIP3      8766            0.0000000000
     51197      8966  TIP3      H1            -30.1291776152      -37.0373887338      -24.6582611314  TIP3      8766            0.0000000000
     51198      8966  TIP3      H2            -31.4313044993      -37.7724084827      -24.3948869480  TIP3      8766            0.0000000000
     51199      8967  TIP3      OH2           -23.8654774725      -36.6061859531      -27.2725893898  TIP3      8767            0.0000000000
     51200      8967  TIP3      H1            -24.7833089544      -36.2692112894      -27.2653958656  TIP3      8767            0.0000000000
     51201      8967  TIP3      H2            -24.0280343624      -37.5700112982      -27.2328583061  TIP3      8767            0.0000000000
     51202      8968  TIP3      OH2           -36.4293803022      -21.5295421219      -27.4873791167  TIP3      8768            0.0000000000
     51203      8968  TIP3      H1            -37.3933037919      -21.5014230272      -27.5429910627  TIP3      8768            0.0000000000
     51204      8968  TIP3      H2            -36.2363968324      -20.6197791197      -27.8052284282  TIP3      8768            0.0000000000
     51205      8969  TIP3      OH2           -29.7366742884      -35.3399197703      -27.4669386525  TIP3      8769            0.0000000000
     51206      8969  TIP3      H1            -29.5887244184      -36.1475754481      -26.9486871414  TIP3      8769            0.0000000000
     51207      8969  TIP3      H2            -29.2871663907      -34.6521161190      -26.9220118617  TIP3      8769            0.0000000000
     51208      8970  TIP3      OH2           -20.9722633006      -21.3372979358      -26.1648447283  TIP3      8770            0.0000000000
     51209      8970  TIP3      H1            -21.6447834283      -21.9805821127      -26.4697266882  TIP3      8770            0.0000000000
     51210      8970  TIP3      H2            -21.3233286121      -20.5059451546      -26.5300797611  TIP3      8770            0.0000000000
     51211      8971  TIP3      OH2           -35.1298621584      -20.8503718199      -30.5100004491  TIP3      8771            0.0000000000
     51212      8971  TIP3      H1            -35.5481467000      -20.6115599165      -29.6667916443  TIP3      8771            0.0000000000
     51213      8971  TIP3      H2            -34.5392828528      -21.5654440535      -30.2264989813  TIP3      8771            0.0000000000
     51214      8972  TIP3      OH2            -7.2779603955      -28.3149628070      -24.3997318350  TIP3      8772            0.0000000000
     51215      8972  TIP3      H1             -7.6091874517      -27.4140191387      -24.2437419983  TIP3      8772            0.0000000000
     51216      8972  TIP3      H2             -8.0042945547      -28.6753423498      -24.9284529872  TIP3      8772            0.0000000000
     51217      8973  TIP3      OH2            -5.1381932145      -26.2342000816      -22.1632766371  TIP3      8773            0.0000000000
     51218      8973  TIP3      H1             -5.2474718696      -27.1923589946      -22.1626375569  TIP3      8773            0.0000000000
     51219      8973  TIP3      H2             -4.6710778411      -26.0636198496      -22.9947526844  TIP3      8773            0.0000000000
     51220      8974  TIP3      OH2           -18.8291679266      -31.8515184286      -25.3666471312  TIP3      8774            0.0000000000
     51221      8974  TIP3      H1            -18.8220748344      -31.0975271235      -24.7641566142  TIP3      8774            0.0000000000
     51222      8974  TIP3      H2            -19.1484511178      -31.4420011418      -26.1901405966  TIP3      8774            0.0000000000
     51223      8975  TIP3      OH2           -18.3537348049      -29.1769109394      -23.0153949851  TIP3      8775            0.0000000000
     51224      8975  TIP3      H1            -17.9322987121      -29.8896937607      -22.4926713117  TIP3      8775            0.0000000000
     51225      8975  TIP3      H2            -17.7455922216      -28.4542849694      -22.7907568747  TIP3      8775            0.0000000000
     51226      8976  TIP3      OH2           -10.1990166023      -27.2770412150      -19.8108469500  TIP3      8776            0.0000000000
     51227      8976  TIP3      H1            -10.3239194423      -27.4328786604      -20.7569694594  TIP3      8776            0.0000000000
     51228      8976  TIP3      H2            -10.3581051673      -26.3067678239      -19.7604086698  TIP3      8776            0.0000000000
     51229      8977  TIP3      OH2           -14.2699844556      -33.9565529450      -22.8149806519  TIP3      8777            0.0000000000
     51230      8977  TIP3      H1            -14.0644502415      -33.2746493507      -23.4695810643  TIP3      8777            0.0000000000
     51231      8977  TIP3      H2            -14.5485204807      -34.7125182798      -23.3478911213  TIP3      8777            0.0000000000
     51232      8978  TIP3      OH2            -5.8514315587      -33.9124898971      -24.7608459280  TIP3      8778            0.0000000000
     51233      8978  TIP3      H1             -5.9522386110      -34.4071245806      -23.9278271399  TIP3      8778            0.0000000000
     51234      8978  TIP3      H2             -5.7270288586      -32.9981131349      -24.4679528884  TIP3      8778            0.0000000000
     51235      8979  TIP3      OH2           -17.6092634800      -31.9340363762      -22.2847748711  TIP3      8779            0.0000000000
     51236      8979  TIP3      H1            -17.0809506183      -32.0576138485      -21.4750162894  TIP3      8779            0.0000000000
     51237      8979  TIP3      H2            -17.1695274045      -32.5493640554      -22.8982254679  TIP3      8779            0.0000000000
     51238      8980  TIP3      OH2           -12.1336006847      -30.7067971950      -22.8639917774  TIP3      8780            0.0000000000
     51239      8980  TIP3      H1            -11.3709077008      -30.8269433903      -22.2609133383  TIP3      8780            0.0000000000
     51240      8980  TIP3      H2            -11.9805248607      -31.4167521465      -23.4932815405  TIP3      8780            0.0000000000
     51241      8981  TIP3      OH2            -8.2023936121      -25.9442202509      -25.4614844888  TIP3      8781            0.0000000000
     51242      8981  TIP3      H1             -8.1982160035      -26.2566581986      -26.3777806084  TIP3      8781            0.0000000000
     51243      8981  TIP3      H2             -8.3480662805      -24.9747673296      -25.6120903839  TIP3      8781            0.0000000000
     51244      8982  TIP3      OH2           -15.5571479557      -33.1068867745      -20.6392296328  TIP3      8782            0.0000000000
     51245      8982  TIP3      H1            -14.8677601262      -32.5138012035      -20.3201555945  TIP3      8782            0.0000000000
     51246      8982  TIP3      H2            -15.1192353924      -33.4899555286      -21.4355266169  TIP3      8782            0.0000000000
     51247      8983  TIP3      OH2           -18.0441059101      -26.3207066497      -27.1854477780  TIP3      8783            0.0000000000
     51248      8983  TIP3      H1            -18.1280469931      -25.7751416867      -28.0039540087  TIP3      8783            0.0000000000
     51249      8983  TIP3      H2            -17.9056145159      -25.6195907696      -26.5075090468  TIP3      8783            0.0000000000
     51250      8984  TIP3      OH2            -8.6472489116      -29.0538676624      -26.8017132481  TIP3      8784            0.0000000000
     51251      8984  TIP3      H1             -9.1616998201      -28.2466169145      -26.9953222223  TIP3      8784            0.0000000000
     51252      8984  TIP3      H2             -7.8747392373      -28.9828428647      -27.3909717066  TIP3      8784            0.0000000000
     51253      8985  TIP3      OH2            -8.7239071949      -30.1584165730      -30.0502861172  TIP3      8785            0.0000000000
     51254      8985  TIP3      H1             -8.0532026194      -29.7406532463      -29.4716041937  TIP3      8785            0.0000000000
     51255      8985  TIP3      H2             -8.2724374495      -30.9805479914      -30.2903551599  TIP3      8785            0.0000000000
     51256      8986  TIP3      OH2            -5.0523578035      -29.0258196880      -25.8357496110  TIP3      8786            0.0000000000
     51257      8986  TIP3      H1             -5.8253776640      -28.7943812074      -25.2658792799  TIP3      8786            0.0000000000
     51258      8986  TIP3      H2             -4.4824334180      -29.5163253326      -25.2119325665  TIP3      8786            0.0000000000
     51259      8987  TIP3      OH2            -6.4774180356      -29.3630546886      -28.3953888838  TIP3      8787            0.0000000000
     51260      8987  TIP3      H1             -5.9303142856      -29.3269842432      -27.5855505594  TIP3      8787            0.0000000000
     51261      8987  TIP3      H2             -5.8340555857      -28.9837346039      -29.0487415303  TIP3      8787            0.0000000000
     51262      8988  TIP3      OH2            -8.5320157731      -23.2769262459      -25.4420530001  TIP3      8788            0.0000000000
     51263      8988  TIP3      H1             -8.2173935973      -23.0593451797      -24.5537588494  TIP3      8788            0.0000000000
     51264      8988  TIP3      H2             -9.0914413171      -22.5403338588      -25.7099107062  TIP3      8788            0.0000000000
     51265      8989  TIP3      OH2            -2.8426859866      -37.4554522791      -28.4022501724  TIP3      8789            0.0000000000
     51266      8989  TIP3      H1             -3.7307878597      -37.1536206250      -28.1287300447  TIP3      8789            0.0000000000
     51267      8989  TIP3      H2             -2.4468247317      -36.5902369240      -28.6159539316  TIP3      8789            0.0000000000
     51268      8990  TIP3      OH2           -14.6448996107      -29.4913041507      -26.8134883824  TIP3      8790            0.0000000000
     51269      8990  TIP3      H1            -14.9575023812      -28.5622814803      -26.8642741321  TIP3      8790            0.0000000000
     51270      8990  TIP3      H2            -15.4409941521      -29.9698032031      -26.5887246326  TIP3      8790            0.0000000000
     51271      8991  TIP3      OH2            -9.3346758066      -20.1482965926      -26.5012930177  TIP3      8791            0.0000000000
     51272      8991  TIP3      H1             -9.4260900183      -20.0559985776      -27.4721121417  TIP3      8791            0.0000000000
     51273      8991  TIP3      H2             -9.2666559999      -19.2114034625      -26.2313271496  TIP3      8791            0.0000000000
     51274      8992  TIP3      OH2           -15.4873830371      -21.5749813500      -24.5354857203  TIP3      8792            0.0000000000
     51275      8992  TIP3      H1            -15.4509139077      -21.4865461635      -23.5722856309  TIP3      8792            0.0000000000
     51276      8992  TIP3      H2            -16.3809248846      -21.9330181983      -24.6872791457  TIP3      8792            0.0000000000
     51277      8993  TIP3      OH2            -6.4074831177      -21.0676304055      -29.3288880597  TIP3      8793            0.0000000000
     51278      8993  TIP3      H1             -5.7247473621      -21.6311945534      -29.7668528326  TIP3      8793            0.0000000000
     51279      8993  TIP3      H2             -6.1045332889      -21.0559250495      -28.4051482225  TIP3      8793            0.0000000000
     51280      8994  TIP3      OH2            -6.5336724946      -20.9095367274      -26.3637239246  TIP3      8794            0.0000000000
     51281      8994  TIP3      H1             -7.4923084733      -21.1048161308      -26.3849275460  TIP3      8794            0.0000000000
     51282      8994  TIP3      H2             -6.1302810346      -21.7321544346      -26.0382894222  TIP3      8794            0.0000000000
     51283      8995  TIP3      OH2           -13.5692071318      -37.3525897406      -21.0714049028  TIP3      8795            0.0000000000
     51284      8995  TIP3      H1            -14.3337343017      -37.7323429234      -21.5268899981  TIP3      8795            0.0000000000
     51285      8995  TIP3      H2            -13.9125695427      -36.4675248305      -20.9227169064  TIP3      8795            0.0000000000
     51286      8996  TIP3      OH2            -4.7982597038      -28.3631504623      -30.1410996099  TIP3      8796            0.0000000000
     51287      8996  TIP3      H1             -4.9956095189      -28.1871770166      -31.0777519194  TIP3      8796            0.0000000000
     51288      8996  TIP3      H2             -3.8255856197      -28.2380250457      -30.1507927653  TIP3      8796            0.0000000000
     51289      8997  TIP3      OH2           -13.5696645806      -31.9840856486      -25.0022392469  TIP3      8797            0.0000000000
     51290      8997  TIP3      H1            -14.4071604605      -31.8583323707      -24.5512714656  TIP3      8797            0.0000000000
     51291      8997  TIP3      H2            -13.3136116365      -31.0487688113      -25.0982157063  TIP3      8797            0.0000000000
     51292      8998  TIP3      OH2            -7.6608059697      -31.4670536628      -26.0354239478  TIP3      8798            0.0000000000
     51293      8998  TIP3      H1             -8.0625225905      -30.6711392100      -26.4463983820  TIP3      8798            0.0000000000
     51294      8998  TIP3      H2             -7.2751201623      -31.9495577646      -26.7936795688  TIP3      8798            0.0000000000
     51295      8999  TIP3      OH2            -7.4997735683      -31.8841753981      -23.2014770901  TIP3      8799            0.0000000000
     51296      8999  TIP3      H1             -7.7138233032      -31.4251121972      -24.0234782287  TIP3      8799            0.0000000000
     51297      8999  TIP3      H2             -7.5617039798      -32.8059414255      -23.4576115629  TIP3      8799            0.0000000000
     51298      9000  TIP3      OH2           -12.9876548337      -34.3542803079      -30.9528607529  TIP3      8800            0.0000000000
     51299      9000  TIP3      H1            -13.5896280345      -35.0928032471      -30.8213430507  TIP3      8800            0.0000000000
     51300      9000  TIP3      H2            -13.6101007078      -33.6730523661      -31.2813989259  TIP3      8800            0.0000000000
     51301      9001  TIP3      OH2           -18.2737504342      -33.8130883792      -28.1548609438  TIP3      8801            0.0000000000
     51302      9001  TIP3      H1            -17.7234482273      -33.3287028076      -28.8048415632  TIP3      8801            0.0000000000
     51303      9001  TIP3      H2            -18.9582689991      -33.1347723158      -27.9885859000  TIP3      8801            0.0000000000
     51304      9002  TIP3      OH2           -16.5476029815      -33.3900746565      -24.5928378963  TIP3      8802            0.0000000000
     51305      9002  TIP3      H1            -17.2955349315      -32.7644102895      -24.7105745260  TIP3      8802            0.0000000000
     51306      9002  TIP3      H2            -16.4319848636      -33.7318415064      -25.4873990588  TIP3      8802            0.0000000000
     51307      9003  TIP3      OH2           -14.0700610532      -31.5440154748      -29.7630378013  TIP3      8803            0.0000000000
     51308      9003  TIP3      H1            -14.2006168736      -31.7556728628      -30.7030489979  TIP3      8803            0.0000000000
     51309      9003  TIP3      H2            -13.3097789736      -30.9495169161      -29.8204373068  TIP3      8803            0.0000000000
     51310      9004  TIP3      OH2            -9.8872727253      -31.5450346558      -21.4538427220  TIP3      8804            0.0000000000
     51311      9004  TIP3      H1             -9.0815796706      -31.7457193907      -21.9634463692  TIP3      8804            0.0000000000
     51312      9004  TIP3      H2             -9.6671420643      -32.0235853873      -20.6519496442  TIP3      8804            0.0000000000
     51313      9005  TIP3      OH2           -10.5341077642      -27.2113532327      -27.4603291374  TIP3      8805            0.0000000000
     51314      9005  TIP3      H1            -11.2433453585      -27.7661335694      -27.8512210775  TIP3      8805            0.0000000000
     51315      9005  TIP3      H2            -10.9834697820      -26.9516682364      -26.6190540821  TIP3      8805            0.0000000000
     51316      9006  TIP3      OH2            -6.9702212712      -33.9848517657      -29.7067094544  TIP3      8806            0.0000000000
     51317      9006  TIP3      H1             -7.8666640397      -33.7288752639      -29.4433146899  TIP3      8806            0.0000000000
     51318      9006  TIP3      H2             -6.4197472027      -33.4890869091      -29.0638047234  TIP3      8806            0.0000000000
     51319      9007  TIP3      OH2            -5.9397515080      -32.3219899934      -27.9359215919  TIP3      8807            0.0000000000
     51320      9007  TIP3      H1             -5.1588292094      -32.5040415529      -27.3704065337  TIP3      8807            0.0000000000
     51321      9007  TIP3      H2             -5.6976120830      -31.4504779276      -28.2834756344  TIP3      8807            0.0000000000
     51322      9008  TIP3      OH2            -8.6309669334      -25.6891743707      -28.4904959880  TIP3      8808            0.0000000000
     51323      9008  TIP3      H1             -9.1048901940      -24.8450490846      -28.3221294877  TIP3      8808            0.0000000000
     51324      9008  TIP3      H2             -9.2980596741      -26.3654013594      -28.2276260020  TIP3      8808            0.0000000000
     51325      9009  TIP3      OH2            -1.2400428142      -32.0799735598      -27.8090161736  TIP3      8809            0.0000000000
     51326      9009  TIP3      H1             -1.7979880079      -32.3644372442      -28.5561543414  TIP3      8809            0.0000000000
     51327      9009  TIP3      H2             -1.1332251349      -31.1149224501      -28.0086329177  TIP3      8809            0.0000000000
     51328      9010  TIP3      OH2           -13.0226550777      -24.1617778112      -24.6872596419  TIP3      8810            0.0000000000
     51329      9010  TIP3      H1            -13.0336632626      -23.1920868946      -24.8464924298  TIP3      8810            0.0000000000
     51330      9010  TIP3      H2            -13.9598732940      -24.3764015201      -24.6109133558  TIP3      8810            0.0000000000
     51331      9011  TIP3      OH2           -17.2790679829      -28.7874422367      -29.9925827655  TIP3      8811            0.0000000000
     51332      9011  TIP3      H1            -16.7362527548      -28.4514547300      -29.2456215280  TIP3      8811            0.0000000000
     51333      9011  TIP3      H2            -18.1354374038      -29.0078391265      -29.5711725006  TIP3      8811            0.0000000000
     51334      9012  TIP3      OH2           -11.8398873596      -26.6912958817      -25.1542911912  TIP3      8812            0.0000000000
     51335      9012  TIP3      H1            -12.1668704747      -25.7941297369      -24.9251442818  TIP3      8812            0.0000000000
     51336      9012  TIP3      H2            -11.7805244936      -27.0878433281      -24.2787938697  TIP3      8812            0.0000000000
     51337      9013  TIP3      OH2           -12.9717910992      -21.5333106613      -25.3820750392  TIP3      8813            0.0000000000
     51338      9013  TIP3      H1            -13.9416556704      -21.5884695368      -25.2075107552  TIP3      8813            0.0000000000
     51339      9013  TIP3      H2            -12.7788563489      -20.6405137000      -25.0369302681  TIP3      8813            0.0000000000
     51340      9014  TIP3      OH2            -5.1840414293      -25.0871292928      -29.6858196914  TIP3      8814            0.0000000000
     51341      9014  TIP3      H1             -4.9248836090      -25.4594403055      -28.8002983990  TIP3      8814            0.0000000000
     51342      9014  TIP3      H2             -6.0756329017      -25.4724460380      -29.7318368837  TIP3      8814            0.0000000000
     51343      9015  TIP3      OH2            -4.5704342533      -26.4900072881      -27.4692280291  TIP3      8815            0.0000000000
     51344      9015  TIP3      H1             -4.9720400599      -27.1417531378      -26.8690294742  TIP3      8815            0.0000000000
     51345      9015  TIP3      H2             -3.6196389673      -26.6929975023      -27.3624398728  TIP3      8815            0.0000000000
     51346      9016  TIP3      OH2           -11.3045024882      -23.9374777107      -31.1544211152  TIP3      8816            0.0000000000
     51347      9016  TIP3      H1            -11.3091427725      -24.4083124039      -31.9996164646  TIP3      8816            0.0000000000
     51348      9016  TIP3      H2            -11.8701170224      -24.5274959311      -30.6179588295  TIP3      8816            0.0000000000
     51349      9017  TIP3      OH2           -12.5230287142      -24.7389029679      -28.7416762128  TIP3      8817            0.0000000000
     51350      9017  TIP3      H1            -11.7970172953      -25.1947627073      -28.2791494180  TIP3      8817            0.0000000000
     51351      9017  TIP3      H2            -12.4273115854      -23.8316216817      -28.3757582060  TIP3      8817            0.0000000000
     51352      9018  TIP3      OH2           -15.8486610936      -27.4708179875      -28.1616538733  TIP3      8818            0.0000000000
     51353      9018  TIP3      H1            -16.6566015371      -27.1087658531      -27.7378225538  TIP3      8818            0.0000000000
     51354      9018  TIP3      H2            -15.4832563766      -26.6936985219      -28.6017733348  TIP3      8818            0.0000000000
     51355      9019  TIP3      OH2            -7.3245197222      -35.0670105415      -26.8970506441  TIP3      8819            0.0000000000
     51356      9019  TIP3      H1             -6.9662293836      -34.2185736185      -27.1533320167  TIP3      8819            0.0000000000
     51357      9019  TIP3      H2             -7.1555822210      -35.0840602928      -25.9376259382  TIP3      8819            0.0000000000
     51358      9020  TIP3      OH2            -9.6568349882      -22.9328986634      -28.0919861256  TIP3      8820            0.0000000000
     51359      9020  TIP3      H1            -10.5603135667      -22.5953008681      -27.9017363203  TIP3      8820            0.0000000000
     51360      9020  TIP3      H2             -9.2028891437      -22.0866018273      -28.2273444719  TIP3      8820            0.0000000000
     51361      9021  TIP3      OH2           -12.1846422600      -22.1334450389      -27.9698444324  TIP3      8821            0.0000000000
     51362      9021  TIP3      H1            -12.1372988618      -21.3488354149      -28.5705082558  TIP3      8821            0.0000000000
     51363      9021  TIP3      H2            -12.5452405330      -21.7114261445      -27.1633800643  TIP3      8821            0.0000000000
     51364      9022  TIP3      OH2           -15.3665178871      -24.8845193203      -29.5674713953  TIP3      8822            0.0000000000
     51365      9022  TIP3      H1            -14.6179548986      -24.6070498053      -28.9966200935  TIP3      8822            0.0000000000
     51366      9022  TIP3      H2            -14.8662401579      -25.3062690125      -30.2939389540  TIP3      8822            0.0000000000
     51367      9023  TIP3      OH2           -17.5002695343      -31.7579325931      -29.9302046146  TIP3      8823            0.0000000000
     51368      9023  TIP3      H1            -17.0109531931      -30.9167909216      -29.8865727745  TIP3      8823            0.0000000000
     51369      9023  TIP3      H2            -17.8700556399      -31.7337354573      -30.8239643598  TIP3      8823            0.0000000000
     51370      9024  TIP3      OH2           -16.1750560518      -37.1367377362      -21.5937747511  TIP3      8824            0.0000000000
     51371      9024  TIP3      H1            -16.3221309352      -37.2575813174      -22.5602256992  TIP3      8824            0.0000000000
     51372      9024  TIP3      H2            -16.4078527929      -38.0160010081      -21.2662056678  TIP3      8824            0.0000000000
     51373      9025  TIP3      OH2           -17.4434730775      -23.8375093677      -25.6306781645  TIP3      8825            0.0000000000
     51374      9025  TIP3      H1            -18.1071636963      -23.1810775558      -25.3616498367  TIP3      8825            0.0000000000
     51375      9025  TIP3      H2            -17.0785483134      -23.3438893844      -26.3818320349  TIP3      8825            0.0000000000
     51376      9026  TIP3      OH2            -9.2935017556      -22.0005976254      -31.2535581509  TIP3      8826            0.0000000000
     51377      9026  TIP3      H1             -9.7533460113      -22.8292924786      -30.9887279064  TIP3      8826            0.0000000000
     51378      9026  TIP3      H2             -8.4813992286      -22.3485807583      -31.6707703032  TIP3      8826            0.0000000000
     51379      9027  TIP3      OH2            -4.7309457808      -22.5621522353      -30.7964615868  TIP3      8827            0.0000000000
     51380      9027  TIP3      H1             -4.6486730500      -23.4526011652      -30.3900306373  TIP3      8827            0.0000000000
     51381      9027  TIP3      H2             -4.1060638334      -22.5620175154      -31.5525828421  TIP3      8827            0.0000000000
     51382      9028  TIP3      OH2           -13.8388073309      -26.8873853354      -31.2081130918  TIP3      8828            0.0000000000
     51383      9028  TIP3      H1            -13.7143133730      -27.4236204383      -30.4101233316  TIP3      8828            0.0000000000
     51384      9028  TIP3      H2            -12.9938188316      -27.0400168488      -31.6872735097  TIP3      8828            0.0000000000
     51385      9029  TIP3      OH2            -8.2976066365      -25.4348889623      -31.2861771234  TIP3      8829            0.0000000000
     51386      9029  TIP3      H1             -8.5645120641      -25.5292217419      -30.3520267652  TIP3      8829            0.0000000000
     51387      9029  TIP3      H2             -8.2908253599      -26.3883946508      -31.5485542419  TIP3      8829            0.0000000000
     51388      9030  TIP3      OH2           -12.5207143482      -28.7646991373      -28.5335325105  TIP3      8830            0.0000000000
     51389      9030  TIP3      H1            -13.2032351596      -29.2790153568      -28.0519827305  TIP3      8830            0.0000000000
     51390      9030  TIP3      H2            -12.1598777485      -29.4231796470      -29.1613923239  TIP3      8830            0.0000000000
     51391      9031  TIP3      OH2           -11.6570250928      -30.4224454258      -30.4783435285  TIP3      8831            0.0000000000
     51392      9031  TIP3      H1            -11.8217941725      -30.2664673566      -31.4235304610  TIP3      8831            0.0000000000
     51393      9031  TIP3      H2            -10.6853426128      -30.3453154152      -30.4316557442  TIP3      8831            0.0000000000
     51394      9032  TIP3      OH2            -2.3353837838      -28.0460242217      -31.1702960561  TIP3      8832            0.0000000000
     51395      9032  TIP3      H1             -2.3563825624      -28.3191545356      -32.1180940709  TIP3      8832            0.0000000000
     51396      9032  TIP3      H2             -2.2388300133      -27.0698562694      -31.2451220866  TIP3      8832            0.0000000000
     51397      9033  TIP3      OH2           -11.7146656614      -19.8719697385      -29.1920041729  TIP3      8833            0.0000000000
     51398      9033  TIP3      H1            -10.7418309449      -19.8169554464      -29.1092635667  TIP3      8833            0.0000000000
     51399      9033  TIP3      H2            -11.8143387261      -19.4212337034      -30.0455613412  TIP3      8833            0.0000000000
     51400      9034  TIP3      OH2           -18.1547608733      -25.2587615981      -29.7080047677  TIP3      8834            0.0000000000
     51401      9034  TIP3      H1            -17.1873671676      -25.1191448424      -29.7523908764  TIP3      8834            0.0000000000
     51402      9034  TIP3      H2            -18.2944471174      -25.7942242761      -30.5195455637  TIP3      8834            0.0000000000
     51403      9035  TIP3      OH2           -19.1292384054      -19.7839433124      -24.9485842558  TIP3      8835            0.0000000000
     51404      9035  TIP3      H1            -19.8079057750      -20.3250842411      -25.4126730530  TIP3      8835            0.0000000000
     51405      9035  TIP3      H2            -19.0237998223      -20.3607382775      -24.1618103961  TIP3      8835            0.0000000000
     51406      9036  TIP3      OH2           -18.5708121778      -21.8362080987      -23.2450442349  TIP3      8836            0.0000000000
     51407      9036  TIP3      H1            -19.3986297279      -22.3209564664      -23.1031563510  TIP3      8836            0.0000000000
     51408      9036  TIP3      H2            -18.2658595673      -21.7150418674      -22.3326199562  TIP3      8836            0.0000000000
     51409      9037  TIP3      OH2            -1.5695495676      -27.2386839820      -27.1252029457  TIP3      8837            0.0000000000
     51410      9037  TIP3      H1             -0.7077423500      -26.8366385194      -26.9557590547  TIP3      8837            0.0000000000
     51411      9037  TIP3      H2             -1.5476084352      -27.9954919801      -26.4998333875  TIP3      8837            0.0000000000
     51412      9038  TIP3      OH2            -1.4432194661      -29.3412573086      -25.3892737827  TIP3      8838            0.0000000000
     51413      9038  TIP3      H1             -2.1828254733      -29.9874990003      -25.2559324693  TIP3      8838            0.0000000000
     51414      9038  TIP3      H2             -1.0049128169      -29.2893316726      -24.5115984783  TIP3      8838            0.0000000000
     51415      9039  TIP3      OH2            -1.2426963496      -29.4775182896      -28.9065242679  TIP3      8839            0.0000000000
     51416      9039  TIP3      H1             -1.8328275886      -29.3604510954      -29.6761014456  TIP3      8839            0.0000000000
     51417      9039  TIP3      H2             -1.5270568051      -28.7306524098      -28.3460634920  TIP3      8839            0.0000000000
     51418      9040  TIP3      OH2            -2.9071319078      -32.0096117293      -30.5667530838  TIP3      8840            0.0000000000
     51419      9040  TIP3      H1             -2.3754961417      -31.6158434791      -31.2821115470  TIP3      8840            0.0000000000
     51420      9040  TIP3      H2             -3.1448935638      -32.8829039702      -30.9671899020  TIP3      8840            0.0000000000
     51421      9041  TIP3      OH2            -3.4296043820      -31.0021760908      -24.7655446254  TIP3      8841            0.0000000000
     51422      9041  TIP3      H1             -3.6966956199      -31.5754538585      -25.5295087755  TIP3      8841            0.0000000000
     51423      9041  TIP3      H2             -3.6546093596      -31.5598410536      -24.0133934779  TIP3      8841            0.0000000000
     51424      9042  TIP3      OH2            -3.2911807545      -34.5029856157      -31.3021563734  TIP3      8842            0.0000000000
     51425      9042  TIP3      H1             -2.6509706675      -35.1066956939      -30.8929646638  TIP3      8842            0.0000000000
     51426      9042  TIP3      H2             -4.1399916573      -34.9960949008      -31.3016873649  TIP3      8842            0.0000000000
     51427      9043  TIP3      OH2            -3.6236551622      -32.8423446955      -26.5311674937  TIP3      8843            0.0000000000
     51428      9043  TIP3      H1             -3.6633689011      -33.8079208449      -26.3132137109  TIP3      8843            0.0000000000
     51429      9043  TIP3      H2             -2.6800738392      -32.7303863786      -26.7855641645  TIP3      8843            0.0000000000
     51430      9044  TIP3      OH2            -3.0267356025      -35.4279445040      -26.1387352151  TIP3      8844            0.0000000000
     51431      9044  TIP3      H1             -2.9988337174      -35.9206615003      -25.2878760995  TIP3      8844            0.0000000000
     51432      9044  TIP3      H2             -3.8236261244      -35.8525558863      -26.5342224751  TIP3      8844            0.0000000000
     51433      9045  TIP3      OH2           -17.5892159535      -34.7708309869      -21.5651152343  TIP3      8845            0.0000000000
     51434      9045  TIP3      H1            -16.9130387686      -35.4783430436      -21.6460367439  TIP3      8845            0.0000000000
     51435      9045  TIP3      H2            -17.0642544404      -34.0241435212      -21.2256830736  TIP3      8845            0.0000000000
     51436      9046  TIP3      OH2            -1.2022236119      -35.6454853159      -29.4832893602  TIP3      8846            0.0000000000
     51437      9046  TIP3      H1             -0.7597389096      -36.3340806625      -30.0118579953  TIP3      8846            0.0000000000
     51438      9046  TIP3      H2             -0.4590126160      -35.1170730437      -29.1281988363  TIP3      8846            0.0000000000
     51439      9047  TIP3      OH2           -19.2880844143      -35.7397084119      -26.5294085078  TIP3      8847            0.0000000000
     51440      9047  TIP3      H1            -20.1531359174      -35.3511878160      -26.6953218336  TIP3      8847            0.0000000000
     51441      9047  TIP3      H2            -18.7216699794      -35.0819168865      -26.9796424205  TIP3      8847            0.0000000000
     51442      9048  TIP3      OH2            -3.6936903346      -37.7558891014      -21.9756723674  TIP3      8848            0.0000000000
     51443      9048  TIP3      H1             -3.5378586242      -37.2444520471      -22.8047106200  TIP3      8848            0.0000000000
     51444      9048  TIP3      H2             -4.6612841961      -37.8418832668      -21.9371129563  TIP3      8848            0.0000000000
     51445      9049  TIP3      OH2            -2.3741463592      -36.5127159432      -23.8405560820  TIP3      8849            0.0000000000
     51446      9049  TIP3      H1             -1.7426560302      -37.1550840381      -24.1840776585  TIP3      8849            0.0000000000
     51447      9049  TIP3      H2             -1.7748246954      -35.7729174409      -23.5782177659  TIP3      8849            0.0000000000
     51448      9050  TIP3      OH2           -16.4763907541      -37.3366523832      -24.2013339762  TIP3      8850            0.0000000000
     51449      9050  TIP3      H1            -17.1503989178      -37.0520416230      -24.8331873562  TIP3      8850            0.0000000000
     51450      9050  TIP3      H2            -16.2960960864      -38.2562179047      -24.5135475801  TIP3      8850            0.0000000000
     51451      9051  TIP3      OH2           -17.5035987807      -37.1159131567      -28.1426488733  TIP3      8851            0.0000000000
     51452      9051  TIP3      H1            -17.5261598536      -36.6575382160      -28.9899479559  TIP3      8851            0.0000000000
     51453      9051  TIP3      H2            -18.3610995565      -36.8289354724      -27.7681237970  TIP3      8851            0.0000000000
     51454      9052  TIP3      OH2            -6.4477535783      -36.7136919729      -23.1472105135  TIP3      8852            0.0000000000
     51455      9052  TIP3      H1             -7.0233215305      -36.9360770082      -23.9124797315  TIP3      8852            0.0000000000
     51456      9052  TIP3      H2             -6.7771892721      -37.3438753706      -22.4951445305  TIP3      8852            0.0000000000
     51457      9053  TIP3      OH2            -5.1294004202      -36.6878029039      -27.1070417356  TIP3      8853            0.0000000000
     51458      9053  TIP3      H1             -6.0200739830      -36.3126977530      -26.9338800853  TIP3      8853            0.0000000000
     51459      9053  TIP3      H2             -5.3609827370      -37.6465324753      -27.1066882683  TIP3      8853            0.0000000000
     51460      9054  TIP3      OH2           -17.6865645040      -21.7849838920      -27.3999692619  TIP3      8854            0.0000000000
     51461      9054  TIP3      H1            -18.6401555338      -21.8341681953      -27.5815024819  TIP3      8854            0.0000000000
     51462      9054  TIP3      H2            -17.5151964691      -20.9058095948      -27.7937934384  TIP3      8854            0.0000000000
     51463      9055  TIP3      OH2           -15.9093899828      -35.9615798337      -30.0384590684  TIP3      8855            0.0000000000
     51464      9055  TIP3      H1            -15.6161202795      -36.5428263762      -30.7723022436  TIP3      8855            0.0000000000
     51465      9055  TIP3      H2            -15.4919251252      -36.3747584592      -29.2614213147  TIP3      8855            0.0000000000
     51466      9056  TIP3      OH2            -9.0128722716      -20.3207973897      -29.2096627011  TIP3      8856            0.0000000000
     51467      9056  TIP3      H1             -8.0430321930      -20.3584382367      -29.3226793333  TIP3      8856            0.0000000000
     51468      9056  TIP3      H2             -9.2521117696      -20.8948977142      -29.9716801437  TIP3      8856            0.0000000000
     51469      9057  TIP3      OH2           -16.3351585558      -20.8584524939      -30.4595581267  TIP3      8857            0.0000000000
     51470      9057  TIP3      H1            -16.6255799978      -20.7476991819      -29.5418225208  TIP3      8857            0.0000000000
     51471      9057  TIP3      H2            -15.6422894068      -21.5296979714      -30.3598071357  TIP3      8857            0.0000000000
     51472      9058  TIP3      OH2            -0.1043564397      -31.7728107234      -25.2629756571  TIP3      8858            0.0000000000
     51473      9058  TIP3      H1              0.0465386028      -30.8628709766      -24.9487786893  TIP3      8858            0.0000000000
     51474      9058  TIP3      H2             -0.7202686621      -31.6573208875      -26.0009296330  TIP3      8858            0.0000000000
     51475      9059  TIP3      OH2             0.4411714749      -29.1531753013      -23.3820721162  TIP3      8859            0.0000000000
     51476      9059  TIP3      H1              0.7074292290      -29.3910218303      -22.4817642992  TIP3      8859            0.0000000000
     51477      9059  TIP3      H2              1.0661816682      -28.4304433892      -23.5773293279  TIP3      8859            0.0000000000
     51478      9060  TIP3      OH2            13.0060803077      -33.8654948936      -24.5208976979  TIP3      8860            0.0000000000
     51479      9060  TIP3      H1             13.2920622840      -34.4402895710      -23.7733387613  TIP3      8860            0.0000000000
     51480      9060  TIP3      H2             13.8605081560      -33.5533841638      -24.8436999006  TIP3      8860            0.0000000000
     51481      9061  TIP3      OH2             1.8736491560      -32.1166175084      -22.2855937897  TIP3      8861            0.0000000000
     51482      9061  TIP3      H1              1.8319228043      -33.0772376065      -22.1133478963  TIP3      8861            0.0000000000
     51483      9061  TIP3      H2              2.0447366597      -32.1381455275      -23.2528363030  TIP3      8861            0.0000000000
     51484      9062  TIP3      OH2             6.2850734715      -30.4863810350      -22.2890400992  TIP3      8862            0.0000000000
     51485      9062  TIP3      H1              7.0962622375      -30.6746669159      -22.7862064137  TIP3      8862            0.0000000000
     51486      9062  TIP3      H2              5.6569391026      -30.8972777941      -22.9289636688  TIP3      8862            0.0000000000
     51487      9063  TIP3      OH2            14.3498066982      -35.1250143925      -22.7154692765  TIP3      8863            0.0000000000
     51488      9063  TIP3      H1             13.9169194007      -35.0102850084      -21.8452669506  TIP3      8863            0.0000000000
     51489      9063  TIP3      H2             15.2462983840      -34.8332031459      -22.5283921308  TIP3      8863            0.0000000000
     51490      9064  TIP3      OH2             1.0315786157      -25.8141993196      -26.9486840918  TIP3      8864            0.0000000000
     51491      9064  TIP3      H1              0.7085359050      -25.4248006024      -27.7828351272  TIP3      8864            0.0000000000
     51492      9064  TIP3      H2              0.6422707149      -25.2754738354      -26.2479601812  TIP3      8864            0.0000000000
     51493      9065  TIP3      OH2             7.5532737311      -36.9426672098      -21.2743717402  TIP3      8865            0.0000000000
     51494      9065  TIP3      H1              7.9015811642      -37.8470409938      -21.4128985311  TIP3      8865            0.0000000000
     51495      9065  TIP3      H2              6.7666410277      -36.9613201110      -21.8410897501  TIP3      8865            0.0000000000
     51496      9066  TIP3      OH2            10.0101897210      -29.2762742603      -27.1359241198  TIP3      8866            0.0000000000
     51497      9066  TIP3      H1              9.2990531813      -28.7165938796      -26.7514815251  TIP3      8866            0.0000000000
     51498      9066  TIP3      H2             10.7537740298      -28.6532433534      -27.1398994625  TIP3      8866            0.0000000000
     51499      9067  TIP3      OH2            10.1861878036      -30.2517381506      -30.0169584476  TIP3      8867            0.0000000000
     51500      9067  TIP3      H1             10.3116063853      -30.4513326208      -29.0725979863  TIP3      8867            0.0000000000
     51501      9067  TIP3      H2             10.6362834739      -31.0029680352      -30.4241824683  TIP3      8867            0.0000000000
     51502      9068  TIP3      OH2             4.8496905214      -28.6084383036      -24.1616983067  TIP3      8868            0.0000000000
     51503      9068  TIP3      H1              4.7786162478      -28.7783020015      -25.1203760944  TIP3      8868            0.0000000000
     51504      9068  TIP3      H2              5.7395085876      -28.9020139506      -23.9716986791  TIP3      8868            0.0000000000
     51505      9069  TIP3      OH2            16.4165752778      -37.7248683982      -27.9034743893  TIP3      8869            0.0000000000
     51506      9069  TIP3      H1             15.5430599109      -37.8778224521      -27.4805233911  TIP3      8869            0.0000000000
     51507      9069  TIP3      H2             16.4046685014      -36.7735226876      -28.1064699354  TIP3      8869            0.0000000000
     51508      9070  TIP3      OH2             4.0464401280      -29.3703436942      -26.9368958906  TIP3      8870            0.0000000000
     51509      9070  TIP3      H1              3.4847382992      -28.6238652035      -27.2381901276  TIP3      8870            0.0000000000
     51510      9070  TIP3      H2              3.4714273250      -30.1310297639      -27.0869216892  TIP3      8870            0.0000000000
     51511      9071  TIP3      OH2            17.2282580561      -24.0640082851      -29.8355665166  TIP3      8871            0.0000000000
     51512      9071  TIP3      H1             17.4516855235      -23.2242381056      -30.2452546556  TIP3      8871            0.0000000000
     51513      9071  TIP3      H2             18.0779625965      -24.5523295693      -29.8788830274  TIP3      8871            0.0000000000
     51514      9072  TIP3      OH2             3.4471420204      -21.3299082044      -24.9593231274  TIP3      8872            0.0000000000
     51515      9072  TIP3      H1              4.1203906779      -21.8310616465      -24.4349845214  TIP3      8872            0.0000000000
     51516      9072  TIP3      H2              2.6521377399      -21.7937195484      -24.7063233514  TIP3      8872            0.0000000000
     51517      9073  TIP3      OH2            12.4992360792      -20.6426767575      -29.2342423923  TIP3      8873            0.0000000000
     51518      9073  TIP3      H1             13.2262982591      -21.2462395671      -29.5040271129  TIP3      8873            0.0000000000
     51519      9073  TIP3      H2             12.7080722837      -20.5913842720      -28.2752973886  TIP3      8873            0.0000000000
     51520      9074  TIP3      OH2            12.3202401106      -21.1942224955      -26.4230773308  TIP3      8874            0.0000000000
     51521      9074  TIP3      H1             11.3881283013      -20.9659318808      -26.5421288864  TIP3      8874            0.0000000000
     51522      9074  TIP3      H2             12.2845582123      -21.9829402847      -25.8604829176  TIP3      8874            0.0000000000
     51523      9075  TIP3      OH2             9.3451609661      -34.6191975459      -29.8482728420  TIP3      8875            0.0000000000
     51524      9075  TIP3      H1              8.9829334032      -34.8098435465      -28.9568687583  TIP3      8875            0.0000000000
     51525      9075  TIP3      H2              8.9398974795      -35.3852819673      -30.2833259687  TIP3      8875            0.0000000000
     51526      9076  TIP3      OH2             5.3245364730      -31.8461133365      -24.3829384330  TIP3      8876            0.0000000000
     51527      9076  TIP3      H1              4.4839822835      -32.3131747898      -24.5099629515  TIP3      8876            0.0000000000
     51528      9076  TIP3      H2              5.7902030241      -32.1617392708      -25.1905960667  TIP3      8876            0.0000000000
     51529      9077  TIP3      OH2            10.8052081439      -31.3678118923      -25.7668172351  TIP3      8877            0.0000000000
     51530      9077  TIP3      H1             10.4831335643      -30.6631692896      -26.3676921051  TIP3      8877            0.0000000000
     51531      9077  TIP3      H2             11.5817131974      -31.7089105162      -26.2366803813  TIP3      8877            0.0000000000
     51532      9078  TIP3      OH2             5.9393518783      -34.4746470288      -30.8495433692  TIP3      8878            0.0000000000
     51533      9078  TIP3      H1              5.4582248255      -34.8279905937      -30.0704247350  TIP3      8878            0.0000000000
     51534      9078  TIP3      H2              5.2514746013      -33.9087672038      -31.2728098581  TIP3      8878            0.0000000000
     51535      9079  TIP3      OH2            -0.2561058524      -34.9432995560      -23.5978099728  TIP3      8879            0.0000000000
     51536      9079  TIP3      H1              0.3102465160      -34.1637297380      -23.5213576838  TIP3      8879            0.0000000000
     51537      9079  TIP3      H2             -0.0804692938      -35.2427227551      -24.5070608059  TIP3      8879            0.0000000000
     51538      9080  TIP3      OH2             0.5839983821      -34.1114149764      -28.1724793020  TIP3      8880            0.0000000000
     51539      9080  TIP3      H1              1.1634355501      -33.7125296263      -28.8492469150  TIP3      8880            0.0000000000
     51540      9080  TIP3      H2              0.0102194425      -33.3438604072      -27.9795479530  TIP3      8880            0.0000000000
     51541      9081  TIP3      OH2             8.1201695557      -33.7350705620      -23.2469431590  TIP3      8881            0.0000000000
     51542      9081  TIP3      H1              7.5211895642      -34.4786757123      -23.3803751966  TIP3      8881            0.0000000000
     51543      9081  TIP3      H2              8.9062721537      -34.1917702186      -22.8654970031  TIP3      8881            0.0000000000
     51544      9082  TIP3      OH2             2.3722012025      -33.0670933649      -24.7864670425  TIP3      8882            0.0000000000
     51545      9082  TIP3      H1              1.6491902288      -32.9648496388      -25.4385041332  TIP3      8882            0.0000000000
     51546      9082  TIP3      H2              2.9227258477      -33.7967937610      -25.1292458280  TIP3      8882            0.0000000000
     51547      9083  TIP3      OH2             6.1816113894      -32.5804672953      -26.9160177609  TIP3      8883            0.0000000000
     51548      9083  TIP3      H1              7.1456852005      -32.5035901646      -27.0328300726  TIP3      8883            0.0000000000
     51549      9083  TIP3      H2              5.8241354462      -31.8936954220      -27.4960718157  TIP3      8883            0.0000000000
     51550      9084  TIP3      OH2            13.1856291340      -35.1016217994      -20.3281408485  TIP3      8884            0.0000000000
     51551      9084  TIP3      H1             12.7159938804      -34.2927916983      -20.0313048338  TIP3      8884            0.0000000000
     51552      9084  TIP3      H2             12.4785102280      -35.6388305473      -20.7271886083  TIP3      8884            0.0000000000
     51553      9085  TIP3      OH2             4.9150124841      -31.3807479951      -29.6356644814  TIP3      8885            0.0000000000
     51554      9085  TIP3      H1              4.5915731914      -31.8199854438      -30.4488819148  TIP3      8885            0.0000000000
     51555      9085  TIP3      H2              5.7169824277      -30.9641787795      -30.0118757455  TIP3      8885            0.0000000000
     51556      9086  TIP3      OH2             8.2923402532      -27.2496044949      -26.9052983929  TIP3      8886            0.0000000000
     51557      9086  TIP3      H1              7.6453851394      -27.6400185636      -27.5243008998  TIP3      8886            0.0000000000
     51558      9086  TIP3      H2              7.7675048333      -26.6052729538      -26.3940159656  TIP3      8886            0.0000000000
     51559      9087  TIP3      OH2            11.8663977918      -34.0457634526      -29.0275693694  TIP3      8887            0.0000000000
     51560      9087  TIP3      H1             10.9566004393      -34.0204232593      -29.3969678768  TIP3      8887            0.0000000000
     51561      9087  TIP3      H2             12.0499824382      -33.1105596544      -28.8373148158  TIP3      8887            0.0000000000
     51562      9088  TIP3      OH2            12.6366395558      -31.8281631797      -27.7494001297  TIP3      8888            0.0000000000
     51563      9088  TIP3      H1             13.1296310483      -32.4385155692      -27.1611374641  TIP3      8888            0.0000000000
     51564      9088  TIP3      H2             13.3670297247      -31.4544502690      -28.2547282542  TIP3      8888            0.0000000000
     51565      9089  TIP3      OH2             2.7958445982      -27.5237571738      -22.6100238016  TIP3      8889            0.0000000000
     51566      9089  TIP3      H1              3.6017683951      -27.7899095083      -23.0978777024  TIP3      8889            0.0000000000
     51567      9089  TIP3      H2              2.8028980564      -28.0569349058      -21.8159941297  TIP3      8889            0.0000000000
     51568      9090  TIP3      OH2            10.4236039042      -26.2218192107      -28.8066294063  TIP3      8890            0.0000000000
     51569      9090  TIP3      H1             10.3049159423      -25.2834650504      -28.6378161385  TIP3      8890            0.0000000000
     51570      9090  TIP3      H2              9.7992915080      -26.6199421950      -28.1686026372  TIP3      8890            0.0000000000
     51571      9091  TIP3      OH2            17.5841071608      -31.9373508511      -27.9453535066  TIP3      8891            0.0000000000
     51572      9091  TIP3      H1             17.0899129371      -32.2810664320      -28.7281284899  TIP3      8891            0.0000000000
     51573      9091  TIP3      H2             17.8676504587      -31.0573168784      -28.2587588630  TIP3      8891            0.0000000000
     51574      9092  TIP3      OH2            16.7891232787      -23.8863444252      -27.1344571598  TIP3      8892            0.0000000000
     51575      9092  TIP3      H1             15.9233124438      -24.2954281668      -27.0070219390  TIP3      8892            0.0000000000
     51576      9092  TIP3      H2             16.8733592423      -23.8195471806      -28.1071509010  TIP3      8892            0.0000000000
     51577      9093  TIP3      OH2            13.4077798075      -29.2589747313      -20.9841996953  TIP3      8893            0.0000000000
     51578      9093  TIP3      H1             12.6477579229      -28.6949426392      -21.1586862175  TIP3      8893            0.0000000000
     51579      9093  TIP3      H2             12.9641806303      -30.1400046185      -20.9341395840  TIP3      8893            0.0000000000
     51580      9094  TIP3      OH2             1.6210557868      -29.3987786907      -29.1600256478  TIP3      8894            0.0000000000
     51581      9094  TIP3      H1              1.9693714014      -28.5330051920      -28.8580994522  TIP3      8894            0.0000000000
     51582      9094  TIP3      H2              0.8224950418      -29.1939825539      -29.6781687646  TIP3      8894            0.0000000000
     51583      9095  TIP3      OH2             7.6975590376      -24.3949503949      -31.1421192633  TIP3      8895            0.0000000000
     51584      9095  TIP3      H1              7.4189615202      -24.6022133783      -32.0428284526  TIP3      8895            0.0000000000
     51585      9095  TIP3      H2              7.5565084008      -25.2540255196      -30.7128237985  TIP3      8895            0.0000000000
     51586      9096  TIP3      OH2             2.8609740935      -27.2614340976      -28.2247277795  TIP3      8896            0.0000000000
     51587      9096  TIP3      H1              2.2144639775      -26.7845935405      -27.6520559345  TIP3      8896            0.0000000000
     51588      9096  TIP3      H2              3.3623177631      -26.5451321302      -28.6437140089  TIP3      8896            0.0000000000
     51589      9097  TIP3      OH2            11.5952293266      -34.9865959779      -26.3624357753  TIP3      8897            0.0000000000
     51590      9097  TIP3      H1             11.3978302855      -34.3726682136      -27.0841910607  TIP3      8897            0.0000000000
     51591      9097  TIP3      H2             12.0745121610      -34.4180073055      -25.6963364607  TIP3      8897            0.0000000000
     51592      9098  TIP3      OH2             8.7320149514      -33.1217269282      -25.7461142124  TIP3      8898            0.0000000000
     51593      9098  TIP3      H1              9.5955393524      -32.7365783748      -25.4860960838  TIP3      8898            0.0000000000
     51594      9098  TIP3      H2              8.4562477071      -33.3972161576      -24.8425261625  TIP3      8898            0.0000000000
     51595      9099  TIP3      OH2             9.5284714629      -36.4129843378      -25.3329232777  TIP3      8899            0.0000000000
     51596      9099  TIP3      H1              9.4741009975      -36.1561275889      -24.3997448236  TIP3      8899            0.0000000000
     51597      9099  TIP3      H2             10.3063263686      -35.8949983879      -25.6224950599  TIP3      8899            0.0000000000
     51598      9100  TIP3      OH2             4.9215279440      -35.1408570179      -28.3148660407  TIP3      8900            0.0000000000
     51599      9100  TIP3      H1              4.7695353999      -34.4351579224      -27.6671136105  TIP3      8900            0.0000000000
     51600      9100  TIP3      H2              5.8415612497      -35.3281433166      -28.0333471242  TIP3      8900            0.0000000000
     51601      9101  TIP3      OH2             3.5119283889      -24.9602431180      -29.6285557268  TIP3      8901            0.0000000000
     51602      9101  TIP3      H1              4.2756628485      -24.7453996156      -29.0835491414  TIP3      8901            0.0000000000
     51603      9101  TIP3      H2              3.9733834104      -25.4605279320      -30.3407681483  TIP3      8901            0.0000000000
     51604      9102  TIP3      OH2             1.5750494946      -32.0543769500      -30.0097644541  TIP3      8902            0.0000000000
     51605      9102  TIP3      H1              1.9481085699      -31.2147959245      -29.6826126708  TIP3      8902            0.0000000000
     51606      9102  TIP3      H2              0.9927888719      -31.7233828120      -30.7080679731  TIP3      8902            0.0000000000
     51607      9103  TIP3      OH2             9.5088243764      -22.1956978167      -30.9980852498  TIP3      8903            0.0000000000
     51608      9103  TIP3      H1              9.0244935593      -23.0416227843      -31.1085765016  TIP3      8903            0.0000000000
     51609      9103  TIP3      H2             10.3376157364      -22.4446704717      -31.4642711319  TIP3      8903            0.0000000000
     51610      9104  TIP3      OH2            14.5837773897      -22.1393470105      -30.1705693474  TIP3      8904            0.0000000000
     51611      9104  TIP3      H1             14.4152739068      -23.0665800545      -30.4145349349  TIP3      8904            0.0000000000
     51612      9104  TIP3      H2             14.9707619598      -21.8690054585      -31.0129407759  TIP3      8904            0.0000000000
     51613      9105  TIP3      OH2             5.1477567489      -26.6383202608      -31.0318921583  TIP3      8905            0.0000000000
     51614      9105  TIP3      H1              4.9672252717      -27.5219468636      -30.6825110454  TIP3      8905            0.0000000000
     51615      9105  TIP3      H2              5.9071622254      -26.8614089186      -31.6168743041  TIP3      8905            0.0000000000
     51616      9106  TIP3      OH2            10.4266467069      -25.4648560868      -31.5799433529  TIP3      8906            0.0000000000
     51617      9106  TIP3      H1             10.3672022675      -25.6411921128      -30.6326127715  TIP3      8906            0.0000000000
     51618      9106  TIP3      H2             10.5613937562      -26.4064624533      -31.8458988521  TIP3      8906            0.0000000000
     51619      9107  TIP3      OH2             6.1941441840      -28.4223281817      -28.5909902810  TIP3      8907            0.0000000000
     51620      9107  TIP3      H1              5.5410841461      -28.8781720262      -28.0342256306  TIP3      8907            0.0000000000
     51621      9107  TIP3      H2              6.4983540662      -29.1457763459      -29.1652796778  TIP3      8907            0.0000000000
     51622      9108  TIP3      OH2             7.3004446345      -30.2291390147      -30.6309736834  TIP3      8908            0.0000000000
     51623      9108  TIP3      H1              7.3879505237      -29.7605458320      -31.4906916580  TIP3      8908            0.0000000000
     51624      9108  TIP3      H2              8.2407060946      -30.3727796428      -30.4126925734  TIP3      8908            0.0000000000
     51625      9109  TIP3      OH2             0.7066317043      -25.1266386589      -29.7829174649  TIP3      8909            0.0000000000
     51626      9109  TIP3      H1              1.6732510772      -25.2408980863      -29.8608231872  TIP3      8909            0.0000000000
     51627      9109  TIP3      H2              0.3735740995      -25.7591110714      -30.4606530086  TIP3      8909            0.0000000000
     51628      9110  TIP3      OH2            17.6636224523      -29.3145349038      -25.2886154701  TIP3      8910            0.0000000000
     51629      9110  TIP3      H1             16.9289713603      -29.8922263503      -24.9909190729  TIP3      8910            0.0000000000
     51630      9110  TIP3      H2             18.0167592582      -28.9349690681      -24.4607020501  TIP3      8910            0.0000000000
     51631      9111  TIP3      OH2            18.0660587635      -29.4661069669      -28.9005448793  TIP3      8911            0.0000000000
     51632      9111  TIP3      H1             17.1721106548      -29.4380839455      -29.2730190019  TIP3      8911            0.0000000000
     51633      9111  TIP3      H2             18.0196688763      -28.9888054655      -28.0503181739  TIP3      8911            0.0000000000
     51634      9112  TIP3      OH2            15.9181355781      -32.0497548987      -30.3318836746  TIP3      8912            0.0000000000
     51635      9112  TIP3      H1             16.3438539592      -31.7017619445      -31.1362913085  TIP3      8912            0.0000000000
     51636      9112  TIP3      H2             15.6256718479      -32.9412791786      -30.6373930911  TIP3      8912            0.0000000000
     51637      9113  TIP3      OH2            15.4824183239      -30.8271051844      -24.7960577382  TIP3      8913            0.0000000000
     51638      9113  TIP3      H1             14.6951618567      -31.3668002524      -25.0028068518  TIP3      8913            0.0000000000
     51639      9113  TIP3      H2             15.2169357887      -30.4297463396      -23.9532445819  TIP3      8913            0.0000000000
     51640      9114  TIP3      OH2            15.5238514943      -34.6112918821      -30.8996900066  TIP3      8914            0.0000000000
     51641      9114  TIP3      H1             16.0250203973      -35.1199690396      -30.2269137003  TIP3      8914            0.0000000000
     51642      9114  TIP3      H2             14.6383688927      -35.0272792996      -30.9381248488  TIP3      8914            0.0000000000
     51643      9115  TIP3      OH2            14.7024224650      -32.9053355103      -26.2673735787  TIP3      8915            0.0000000000
     51644      9115  TIP3      H1             15.1833200139      -33.7711803824      -26.2938863979  TIP3      8915            0.0000000000
     51645      9115  TIP3      H2             15.4590592261      -32.2925863129      -26.2990230674  TIP3      8915            0.0000000000
     51646      9116  TIP3      OH2            15.9907890786      -35.2613706853      -26.3132693162  TIP3      8916            0.0000000000
     51647      9116  TIP3      H1             16.1683554412      -35.8697115232      -25.5634579927  TIP3      8916            0.0000000000
     51648      9116  TIP3      H2             15.1928283328      -35.6856545557      -26.7010314256  TIP3      8916            0.0000000000
     51649      9117  TIP3      OH2            -0.4078516034      -32.0345470406      -20.4301596266  TIP3      8917            0.0000000000
     51650      9117  TIP3      H1              0.1731354083      -31.8330323099      -21.1801145367  TIP3      8917            0.0000000000
     51651      9117  TIP3      H2             -0.5686679398      -31.1602014543      -20.0589010048  TIP3      8917            0.0000000000
     51652      9118  TIP3      OH2            17.6700984749      -35.7769336767      -29.3875542202  TIP3      8918            0.0000000000
     51653      9118  TIP3      H1             18.0670228889      -36.3247821150      -30.0886497919  TIP3      8918            0.0000000000
     51654      9118  TIP3      H2             18.4160023514      -35.2301059330      -29.0563364980  TIP3      8918            0.0000000000
     51655      9119  TIP3      OH2            -0.3064595277      -35.9790977720      -26.3097245997  TIP3      8919            0.0000000000
     51656      9119  TIP3      H1             -1.2528045675      -35.8036997383      -26.4827775108  TIP3      8919            0.0000000000
     51657      9119  TIP3      H2              0.0879900544      -35.5121445382      -27.0759147410  TIP3      8919            0.0000000000
     51658      9120  TIP3      OH2             9.8926086226      -35.7339031885      -22.5793339331  TIP3      8920            0.0000000000
     51659      9120  TIP3      H1              9.2814298206      -36.3273824469      -22.1263120259  TIP3      8920            0.0000000000
     51660      9120  TIP3      H2             10.6299395730      -36.3206481918      -22.8598190541  TIP3      8920            0.0000000000
     51661      9121  TIP3      OH2            15.0574720130      -37.9213918456      -22.7026723105  TIP3      8921            0.0000000000
     51662      9121  TIP3      H1             15.4853920745      -37.1472692858      -23.0984144746  TIP3      8921            0.0000000000
     51663      9121  TIP3      H2             14.4756600722      -37.5361237148      -22.0314312090  TIP3      8921            0.0000000000
     51664      9122  TIP3      OH2            17.1334050729      -36.6450345920      -24.3003669998  TIP3      8922            0.0000000000
     51665      9122  TIP3      H1             17.7063925812      -37.4044067991      -24.1366848786  TIP3      8922            0.0000000000
     51666      9122  TIP3      H2             17.6437138572      -35.8736868056      -23.9570424401  TIP3      8922            0.0000000000
     51667      9123  TIP3      OH2            11.9364118154      -37.4587041319      -23.1328625426  TIP3      8923            0.0000000000
     51668      9123  TIP3      H1             12.5337362038      -38.0676214680      -23.5849784151  TIP3      8923            0.0000000000
     51669      9123  TIP3      H2             12.1655089416      -37.6789393432      -22.1976188755  TIP3      8923            0.0000000000
     51670      9124  TIP3      OH2            13.7287800750      -36.4290725309      -27.0927450864  TIP3      8924            0.0000000000
     51671      9124  TIP3      H1             12.8410068609      -36.0044998180      -27.0006658886  TIP3      8924            0.0000000000
     51672      9124  TIP3      H2             13.5967883939      -37.2376226391      -26.5804022768  TIP3      8924            0.0000000000
     51673      9125  TIP3      OH2             2.5378014319      -36.3984618938      -29.7906359321  TIP3      8925            0.0000000000
     51674      9125  TIP3      H1              3.2528027575      -36.6785233272      -30.3889284281  TIP3      8925            0.0000000000
     51675      9125  TIP3      H2              3.0115337432      -35.8707910603      -29.1217344725  TIP3      8925            0.0000000000
     51676      9126  TIP3      OH2             7.9859809612      -35.2090191640      -27.5066686131  TIP3      8926            0.0000000000
     51677      9126  TIP3      H1              8.2610141514      -35.8994628466      -26.8612151428  TIP3      8926            0.0000000000
     51678      9126  TIP3      H2              8.2132853219      -34.4215111241      -26.9625174112  TIP3      8926            0.0000000000
     51679      9127  TIP3      OH2             9.8149461461      -20.4457453308      -28.9680760546  TIP3      8927            0.0000000000
     51680      9127  TIP3      H1             10.7793919362      -20.4493602766      -29.1258716802  TIP3      8927            0.0000000000
     51681      9127  TIP3      H2              9.5336123795      -20.9512338632      -29.7536626384  TIP3      8927            0.0000000000
     51682      9128  TIP3      OH2             2.9224964830      -20.8538079794      -30.6509288072  TIP3      8928            0.0000000000
     51683      9128  TIP3      H1              2.7319314127      -20.2822003785      -29.8967598733  TIP3      8928            0.0000000000
     51684      9128  TIP3      H2              3.0016152702      -21.7491386678      -30.2941134083  TIP3      8928            0.0000000000
     51685      9129  TIP3      OH2            30.3443965516      -28.3254658098      -24.5032169854  TIP3      8929            0.0000000000
     51686      9129  TIP3      H1             30.0308813341      -27.3974954031      -24.4541317305  TIP3      8929            0.0000000000
     51687      9129  TIP3      H2             29.8440487320      -28.6572997086      -25.2804019705  TIP3      8929            0.0000000000
     51688      9130  TIP3      OH2            28.9823984024      -29.4375416423      -20.6584044316  TIP3      8930            0.0000000000
     51689      9130  TIP3      H1             29.6615423969      -30.1215187840      -20.6826232011  TIP3      8930            0.0000000000
     51690      9130  TIP3      H2             28.5214271354      -29.5444061175      -21.5047162785  TIP3      8930            0.0000000000
     51691      9131  TIP3      OH2            19.2870442992      -31.6843203467      -25.3713041690  TIP3      8931            0.0000000000
     51692      9131  TIP3      H1             18.8372004289      -30.8188634793      -25.3825776598  TIP3      8931            0.0000000000
     51693      9131  TIP3      H2             18.6583461263      -32.1964143792      -25.8933038373  TIP3      8931            0.0000000000
     51694      9132  TIP3      OH2            19.4156260054      -29.1459172977      -23.1113718509  TIP3      8932            0.0000000000
     51695      9132  TIP3      H1             20.0335626702      -29.8470024818      -22.7930260818  TIP3      8932            0.0000000000
     51696      9132  TIP3      H2             19.8946209447      -28.8324521763      -23.8855788012  TIP3      8932            0.0000000000
     51697      9133  TIP3      OH2            29.8053134758      -20.7742639433      -22.0675799500  TIP3      8933            0.0000000000
     51698      9133  TIP3      H1             30.4185911919      -21.2580267978      -22.6481877856  TIP3      8933            0.0000000000
     51699      9133  TIP3      H2             29.6157025718      -21.5107745403      -21.4721882713  TIP3      8933            0.0000000000
     51700      9134  TIP3      OH2            27.2245239020      -26.3769535656      -20.0054130682  TIP3      8934            0.0000000000
     51701      9134  TIP3      H1             27.4606524798      -26.9146943463      -20.7721934925  TIP3      8934            0.0000000000
     51702      9134  TIP3      H2             27.9950994527      -26.5154145123      -19.4307185592  TIP3      8934            0.0000000000
     51703      9135  TIP3      OH2            23.9090966723      -34.3044656646      -22.9546595899  TIP3      8935            0.0000000000
     51704      9135  TIP3      H1             23.9309570132      -33.3899092531      -23.2861533695  TIP3      8935            0.0000000000
     51705      9135  TIP3      H2             23.4396798689      -34.7847603049      -23.6525799403  TIP3      8935            0.0000000000
     51706      9136  TIP3      OH2            31.5855869230      -34.0041232641      -24.3101258454  TIP3      8936            0.0000000000
     51707      9136  TIP3      H1             32.1276864432      -34.4380244376      -23.6387642345  TIP3      8936            0.0000000000
     51708      9136  TIP3      H2             32.2702510748      -33.4482456577      -24.7513655229  TIP3      8936            0.0000000000
     51709      9137  TIP3      OH2            20.6799399506      -31.5199279698      -22.2847056528  TIP3      8937            0.0000000000
     51710      9137  TIP3      H1             20.8097805759      -32.2131181259      -21.6161704765  TIP3      8937            0.0000000000
     51711      9137  TIP3      H2             20.9026154140      -31.9841760310      -23.1157427393  TIP3      8937            0.0000000000
     51712      9138  TIP3      OH2            25.2914758840      -30.1658213555      -22.8085186190  TIP3      8938            0.0000000000
     51713      9138  TIP3      H1             25.9341881066      -30.7008072514      -22.3302794391  TIP3      8938            0.0000000000
     51714      9138  TIP3      H2             24.8167052976      -30.8811693735      -23.2866053879  TIP3      8938            0.0000000000
     51715      9139  TIP3      OH2            29.5964012477      -25.7590604492      -25.4770314287  TIP3      8939            0.0000000000
     51716      9139  TIP3      H1             29.4303469610      -25.8223141818      -26.4375433325  TIP3      8939            0.0000000000
     51717      9139  TIP3      H2             29.1957565211      -24.9075673594      -25.2388915827  TIP3      8939            0.0000000000
     51718      9140  TIP3      OH2            19.5251774015      -26.1059596432      -27.5121780866  TIP3      8940            0.0000000000
     51719      9140  TIP3      H1             19.4496985827      -25.6541673252      -28.3833813549  TIP3      8940            0.0000000000
     51720      9140  TIP3      H2             19.5381360153      -25.3433947780      -26.8873337277  TIP3      8940            0.0000000000
     51721      9141  TIP3      OH2            31.2234162449      -22.4972644170      -23.7095701887  TIP3      8941            0.0000000000
     51722      9141  TIP3      H1             31.4667489369      -23.3586146988      -24.1078788678  TIP3      8941            0.0000000000
     51723      9141  TIP3      H2             32.0696584091      -22.0338834840      -23.8956898772  TIP3      8941            0.0000000000
     51724      9142  TIP3      OH2            32.7010649226      -24.6470225285      -25.1718987440  TIP3      8942            0.0000000000
     51725      9142  TIP3      H1             32.5728512894      -25.2340327821      -25.9412022758  TIP3      8942            0.0000000000
     51726      9142  TIP3      H2             33.0152387248      -25.2593025772      -24.5024841241  TIP3      8942            0.0000000000
     51727      9143  TIP3      OH2            29.0371171868      -29.1328664716      -26.7163894985  TIP3      8943            0.0000000000
     51728      9143  TIP3      H1             28.3117187973      -28.5094510785      -26.8951462288  TIP3      8943            0.0000000000
     51729      9143  TIP3      H2             29.6907425966      -28.9785789123      -27.4295153642  TIP3      8943            0.0000000000
     51730      9144  TIP3      OH2            28.9717188967      -29.9189108056      -30.1640681096  TIP3      8944            0.0000000000
     51731      9144  TIP3      H1             29.5726337612      -29.5366197459      -29.4966922936  TIP3      8944            0.0000000000
     51732      9144  TIP3      H2             29.1599592526      -30.8589803901      -30.0497368435  TIP3      8944            0.0000000000
     51733      9145  TIP3      OH2            32.3405850924      -29.4793766948      -25.9531286317  TIP3      8945            0.0000000000
     51734      9145  TIP3      H1             31.7185960898      -28.9950762747      -25.3680937358  TIP3      8945            0.0000000000
     51735      9145  TIP3      H2             33.0860637345      -29.6140742562      -25.3331554803  TIP3      8945            0.0000000000
     51736      9146  TIP3      OH2            23.6573882719      -28.4097245523      -24.0879040613  TIP3      8946            0.0000000000
     51737      9146  TIP3      H1             23.5832275704      -29.0199705457      -24.8393250009  TIP3      8946            0.0000000000
     51738      9146  TIP3      H2             24.2871340819      -28.8917895258      -23.4985471983  TIP3      8946            0.0000000000
     51739      9147  TIP3      OH2            25.3508965645      -24.7654510348      -21.3677432064  TIP3      8947            0.0000000000
     51740      9147  TIP3      H1             25.2220684345      -25.2863993818      -22.1716677002  TIP3      8947            0.0000000000
     51741      9147  TIP3      H2             26.0686123140      -25.2323737488      -20.8961913573  TIP3      8947            0.0000000000
     51742      9148  TIP3      OH2            31.0745544984      -29.5840913444      -28.3359296388  TIP3      8948            0.0000000000
     51743      9148  TIP3      H1             31.6153229288      -29.6798265462      -27.5027312854  TIP3      8948            0.0000000000
     51744      9148  TIP3      H2             31.7377391034      -29.1825500718      -28.9572474365  TIP3      8948            0.0000000000
     51745      9149  TIP3      OH2            28.5090997603      -22.6075449824      -24.5741557717  TIP3      8949            0.0000000000
     51746      9149  TIP3      H1             29.4635249361      -22.5848161336      -24.3853781077  TIP3      8949            0.0000000000
     51747      9149  TIP3      H2             28.4565211592      -22.3105476996      -25.4867489279  TIP3      8949            0.0000000000
     51748      9150  TIP3      OH2            34.7537944000      -37.3215903306      -28.2692596242  TIP3      8950            0.0000000000
     51749      9150  TIP3      H1             33.8510102467      -37.2746253501      -28.6479835297  TIP3      8950            0.0000000000
     51750      9150  TIP3      H2             35.2501981095      -36.7200656190      -28.8619691017  TIP3      8950            0.0000000000
     51751      9151  TIP3      OH2            23.1438723512      -29.5610127544      -26.7912906490  TIP3      8951            0.0000000000
     51752      9151  TIP3      H1             22.7614401047      -28.6593292611      -26.8216917842  TIP3      8951            0.0000000000
     51753      9151  TIP3      H2             22.4707619425      -30.1103762839      -27.2014323228  TIP3      8951            0.0000000000
     51754      9152  TIP3      OH2            36.0764700987      -23.4041684983      -29.9727971477  TIP3      8952            0.0000000000
     51755      9152  TIP3      H1             36.4422812685      -22.5327438151      -29.6932480935  TIP3      8952            0.0000000000
     51756      9152  TIP3      H2             36.8938594074      -23.9253025163      -29.9505197832  TIP3      8952            0.0000000000
     51757      9153  TIP3      OH2            28.6520588427      -20.3556531898      -26.3258380377  TIP3      8953            0.0000000000
     51758      9153  TIP3      H1             28.6355443625      -20.2803975327      -27.3029845230  TIP3      8953            0.0000000000
     51759      9153  TIP3      H2             28.4855830205      -19.4281198116      -26.0636921816  TIP3      8953            0.0000000000
     51760      9154  TIP3      OH2            22.1540368590      -21.3902696855      -24.6851914130  TIP3      8954            0.0000000000
     51761      9154  TIP3      H1             22.5289573786      -20.9521341765      -23.9065645032  TIP3      8954            0.0000000000
     51762      9154  TIP3      H2             21.3276457709      -20.8936618427      -24.7487439086  TIP3      8954            0.0000000000
     51763      9155  TIP3      OH2            31.5110474714      -20.9354675625      -29.4920733080  TIP3      8955            0.0000000000
     51764      9155  TIP3      H1             32.0279790732      -21.6818178090      -29.8645595084  TIP3      8955            0.0000000000
     51765      9155  TIP3      H2             31.5396640487      -21.1001847087      -28.5242839333  TIP3      8955            0.0000000000
     51766      9156  TIP3      OH2            31.2153645809      -20.9545114043      -26.8691565269  TIP3      8956            0.0000000000
     51767      9156  TIP3      H1             30.3001231152      -20.7881646728      -26.5427471331  TIP3      8956            0.0000000000
     51768      9156  TIP3      H2             31.4649262066      -21.7557495077      -26.3859233114  TIP3      8956            0.0000000000
     51769      9157  TIP3      OH2            32.7759092324      -28.4043248834      -29.8936135838  TIP3      8957            0.0000000000
     51770      9157  TIP3      H1             32.6538737218      -28.5306534752      -30.8586674018  TIP3      8957            0.0000000000
     51771      9157  TIP3      H2             33.7431886192      -28.3219494215      -29.8443312159  TIP3      8957            0.0000000000
     51772      9158  TIP3      OH2            27.9529861439      -34.9493290956      -29.5890128266  TIP3      8958            0.0000000000
     51773      9158  TIP3      H1             27.8118734803      -35.4876847046      -28.8051327969  TIP3      8958            0.0000000000
     51774      9158  TIP3      H2             27.5812557192      -35.5467510320      -30.2786851735  TIP3      8958            0.0000000000
     51775      9159  TIP3      OH2            24.2738039477      -31.9765870585      -24.5615459267  TIP3      8959            0.0000000000
     51776      9159  TIP3      H1             23.3245232408      -32.2229072394      -24.6353096960  TIP3      8959            0.0000000000
     51777      9159  TIP3      H2             24.6232752361      -32.1309246471      -25.4697622729  TIP3      8959            0.0000000000
     51778      9160  TIP3      OH2            29.7162176069      -31.6170934313      -25.8845528780  TIP3      8960            0.0000000000
     51779      9160  TIP3      H1             29.6006573336      -30.6993913332      -26.2295144110  TIP3      8960            0.0000000000
     51780      9160  TIP3      H2             30.3834025336      -31.9679654098      -26.5054173712  TIP3      8960            0.0000000000
     51781      9161  TIP3      OH2            30.1954123487      -31.5134754474      -22.8193097961  TIP3      8961            0.0000000000
     51782      9161  TIP3      H1             30.3115728543      -31.0934827638      -23.6941449617  TIP3      8961            0.0000000000
     51783      9161  TIP3      H2             30.6327030512      -32.3757833702      -22.9703333223  TIP3      8961            0.0000000000
     51784      9162  TIP3      OH2            24.8346376022      -34.5004840884      -30.8186151532  TIP3      8962            0.0000000000
     51785      9162  TIP3      H1             24.4038945151      -34.8517548716      -30.0061890513  TIP3      8962            0.0000000000
     51786      9162  TIP3      H2             24.0659933807      -34.1928005562      -31.3153226749  TIP3      8962            0.0000000000
     51787      9163  TIP3      OH2            18.7429388467      -34.4086798828      -23.6341479599  TIP3      8963            0.0000000000
     51788      9163  TIP3      H1             19.6235448572      -34.5574174456      -23.2955395036  TIP3      8963            0.0000000000
     51789      9163  TIP3      H2             18.9003310249      -34.5086495077      -24.5913448131  TIP3      8963            0.0000000000
     51790      9164  TIP3      OH2            19.4244721357      -33.9553806724      -28.3336879544  TIP3      8964            0.0000000000
     51791      9164  TIP3      H1             19.9738466462      -33.4933225994      -29.0089134853  TIP3      8964            0.0000000000
     51792      9164  TIP3      H2             18.8873410491      -33.1926031884      -28.0544875367  TIP3      8964            0.0000000000
     51793      9165  TIP3      OH2            21.6892690832      -32.7773028268      -24.7003905157  TIP3      8965            0.0000000000
     51794      9165  TIP3      H1             20.8601577701      -32.3282905685      -25.0021383372  TIP3      8965            0.0000000000
     51795      9165  TIP3      H2             21.7149543582      -33.5830199177      -25.2462429949  TIP3      8965            0.0000000000
     51796      9166  TIP3      OH2            25.0596929813      -32.4218993452      -27.1676654751  TIP3      8966            0.0000000000
     51797      9166  TIP3      H1             25.9221612459      -32.4838587298      -27.5968004462  TIP3      8966            0.0000000000
     51798      9166  TIP3      H2             24.5151753084      -31.9253247005      -27.8082723588  TIP3      8966            0.0000000000
     51799      9167  TIP3      OH2            23.7817977889      -31.3213366175      -29.6287747227  TIP3      8967            0.0000000000
     51800      9167  TIP3      H1             23.3912003002      -31.8659794852      -30.3343429108  TIP3      8967            0.0000000000
     51801      9167  TIP3      H2             24.6076258836      -31.0567668953      -30.0775313536  TIP3      8967            0.0000000000
     51802      9168  TIP3      OH2            27.6478752845      -32.2416610334      -21.7633847809  TIP3      8968            0.0000000000
     51803      9168  TIP3      H1             28.5636507933      -32.2025967458      -22.1096066219  TIP3      8968            0.0000000000
     51804      9168  TIP3      H2             27.6867868137      -31.7661236723      -20.9248474405  TIP3      8968            0.0000000000
     51805      9169  TIP3      OH2            22.6210190926      -35.4174247291      -25.4117071623  TIP3      8969            0.0000000000
     51806      9169  TIP3      H1             21.8379995156      -35.8689138616      -25.0232739903  TIP3      8969            0.0000000000
     51807      9169  TIP3      H2             23.1434484389      -36.1864791791      -25.6873217014  TIP3      8969            0.0000000000
     51808      9170  TIP3      OH2            27.1317260828      -26.8752378239      -27.3888336175  TIP3      8970            0.0000000000
     51809      9170  TIP3      H1             26.4350817486      -27.4977956334      -27.7149367702  TIP3      8970            0.0000000000
     51810      9170  TIP3      H2             26.7743851465      -26.6571380740      -26.4937766240  TIP3      8970            0.0000000000
     51811      9171  TIP3      OH2            30.4627732730      -34.4772002343      -29.0786074631  TIP3      8971            0.0000000000
     51812      9171  TIP3      H1             29.4978395804      -34.5311208169      -29.2973230628  TIP3      8971            0.0000000000
     51813      9171  TIP3      H2             30.6343002117      -33.5137271919      -29.0605634035  TIP3      8971            0.0000000000
     51814      9172  TIP3      OH2            31.5725265569      -32.2538352028      -28.0143972330  TIP3      8972            0.0000000000
     51815      9172  TIP3      H1             32.5274743855      -32.1478074539      -27.8070785414  TIP3      8972            0.0000000000
     51816      9172  TIP3      H2             31.4848958114      -31.4793272319      -28.6002814020  TIP3      8972            0.0000000000
     51817      9173  TIP3      OH2            29.2335058913      -25.6917605540      -28.3836815891  TIP3      8973            0.0000000000
     51818      9173  TIP3      H1             28.8336005274      -24.7963072211      -28.2340808710  TIP3      8973            0.0000000000
     51819      9173  TIP3      H2             28.4662235314      -26.2669013471      -28.1879771190  TIP3      8973            0.0000000000
     51820      9174  TIP3      OH2            37.5882236973      -32.2323216591      -28.3831026311  TIP3      8974            0.0000000000
     51821      9174  TIP3      H1             36.6973741864      -32.4536658176      -28.6943475806  TIP3      8974            0.0000000000
     51822      9174  TIP3      H2             37.4212491999      -31.2798436166      -28.3585100904  TIP3      8974            0.0000000000
     51823      9175  TIP3      OH2            34.7291775213      -23.4032402119      -27.5554551981  TIP3      8975            0.0000000000
     51824      9175  TIP3      H1             34.1845825765      -24.1842397718      -27.4207800886  TIP3      8975            0.0000000000
     51825      9175  TIP3      H2             35.1854662798      -23.5618738767      -28.4073672911  TIP3      8975            0.0000000000
     51826      9176  TIP3      OH2            24.3207892023      -24.2210028768      -24.3101879383  TIP3      8976            0.0000000000
     51827      9176  TIP3      H1             24.7764909809      -23.4537849455      -24.7047045012  TIP3      8976            0.0000000000
     51828      9176  TIP3      H2             23.7122166792      -24.4691840567      -25.0090314680  TIP3      8976            0.0000000000
     51829      9177  TIP3      OH2            20.8842652987      -28.9911392745      -29.7508764110  TIP3      8977            0.0000000000
     51830      9177  TIP3      H1             21.3040746142      -28.5262612910      -28.9958609031  TIP3      8977            0.0000000000
     51831      9177  TIP3      H2             19.9314143062      -28.9791070572      -29.5771088989  TIP3      8977            0.0000000000
     51832      9178  TIP3      OH2            25.9054400600      -26.5981596067      -24.9606584893  TIP3      8978            0.0000000000
     51833      9178  TIP3      H1             25.3216001834      -25.8475277629      -24.7724930912  TIP3      8978            0.0000000000
     51834      9178  TIP3      H2             25.6664901343      -27.2077833886      -24.2382319625  TIP3      8978            0.0000000000
     51835      9179  TIP3      OH2            24.9646767218      -21.7387600017      -25.4927967078  TIP3      8979            0.0000000000
     51836      9179  TIP3      H1             23.9918748910      -21.6838450805      -25.4248972564  TIP3      8979            0.0000000000
     51837      9179  TIP3      H2             25.2527894735      -20.9357249148      -25.0054152602  TIP3      8979            0.0000000000
     51838      9180  TIP3      OH2            32.5951685731      -25.1850063375      -29.5084236438  TIP3      8980            0.0000000000
     51839      9180  TIP3      H1             32.6296742214      -25.6896432948      -28.6678474943  TIP3      8980            0.0000000000
     51840      9180  TIP3      H2             31.7447216231      -25.4941167267      -29.8686656375  TIP3      8980            0.0000000000
     51841      9181  TIP3      OH2            36.7642312510      -20.8854415037      -29.3888015042  TIP3      8981            0.0000000000
     51842      9181  TIP3      H1             37.2715759438      -20.2880971906      -29.9699805793  TIP3      8981            0.0000000000
     51843      9181  TIP3      H2             35.8992384205      -20.4405303763      -29.4247292049  TIP3      8981            0.0000000000
     51844      9182  TIP3      OH2            33.1082494945      -26.5087154268      -27.1921447167  TIP3      8982            0.0000000000
     51845      9182  TIP3      H1             32.8588071218      -27.4313705901      -27.3798378433  TIP3      8982            0.0000000000
     51846      9182  TIP3      H2             34.0889638090      -26.6054521932      -27.1244950970  TIP3      8982            0.0000000000
     51847      9183  TIP3      OH2            26.4788022816      -24.0370813899      -31.1251060592  TIP3      8983            0.0000000000
     51848      9183  TIP3      H1             26.2381928992      -24.5193656191      -31.9304860017  TIP3      8983            0.0000000000
     51849      9183  TIP3      H2             25.8425844183      -24.3974401797      -30.4826778700  TIP3      8983            0.0000000000
     51850      9184  TIP3      OH2            25.2116546058      -24.9661557612      -28.7251689132  TIP3      8984            0.0000000000
     51851      9184  TIP3      H1             25.9546120842      -25.4319156149      -28.3055659267  TIP3      8984            0.0000000000
     51852      9184  TIP3      H2             25.3279966308      -24.0496508306      -28.3755542975  TIP3      8984            0.0000000000
     51853      9185  TIP3      OH2            21.9267994593      -27.2780841815      -27.9634990151  TIP3      8985            0.0000000000
     51854      9185  TIP3      H1             21.0398161059      -26.9746225191      -27.6561196388  TIP3      8985            0.0000000000
     51855      9185  TIP3      H2             22.1560089359      -26.5778840297      -28.5975982363  TIP3      8985            0.0000000000
     51856      9186  TIP3      OH2            30.3706822197      -35.0676435045      -26.5061328041  TIP3      8986            0.0000000000
     51857      9186  TIP3      H1             30.4523026203      -34.5501596150      -27.3356640587  TIP3      8986            0.0000000000
     51858      9186  TIP3      H2             30.7992018457      -34.4682661892      -25.8480221021  TIP3      8986            0.0000000000
     51859      9187  TIP3      OH2            28.2661982994      -23.1716460521      -28.0866611739  TIP3      8987            0.0000000000
     51860      9187  TIP3      H1             27.3657993698      -22.8532819294      -27.8882896985  TIP3      8987            0.0000000000
     51861      9187  TIP3      H2             28.7144934004      -22.3329051105      -28.2885321112  TIP3      8987            0.0000000000
     51862      9188  TIP3      OH2            27.5916506020      -33.4813927743      -25.5531497494  TIP3      8988            0.0000000000
     51863      9188  TIP3      H1             28.3509143649      -32.8719065533      -25.6694705916  TIP3      8988            0.0000000000
     51864      9188  TIP3      H2             26.9144072547      -32.8775038517      -25.2077307291  TIP3      8988            0.0000000000
     51865      9189  TIP3      OH2            28.3741917182      -36.2728740004      -25.0774846308  TIP3      8989            0.0000000000
     51866      9189  TIP3      H1             28.0975979816      -35.3375250518      -25.1672671002  TIP3      8989            0.0000000000
     51867      9189  TIP3      H2             29.3072472489      -36.1561280798      -25.3515882913  TIP3      8989            0.0000000000
     51868      9190  TIP3      OH2            25.5639399951      -22.4400980994      -28.0203124904  TIP3      8990            0.0000000000
     51869      9190  TIP3      H1             25.5332436032      -21.6250826042      -28.5766368618  TIP3      8990            0.0000000000
     51870      9190  TIP3      H2             25.4570845219      -22.0511922717      -27.1224273891  TIP3      8990            0.0000000000
     51871      9191  TIP3      OH2            23.8057870349      -35.1637708907      -28.4499308938  TIP3      8991            0.0000000000
     51872      9191  TIP3      H1             23.5946813827      -34.4436282863      -27.8282737016  TIP3      8991            0.0000000000
     51873      9191  TIP3      H2             24.7125843153      -35.3538728469      -28.1317341715  TIP3      8991            0.0000000000
     51874      9192  TIP3      OH2            32.8129459303      -30.4827027884      -22.2758981967  TIP3      8992            0.0000000000
     51875      9192  TIP3      H1             31.8849967147      -30.6294979440      -22.0375803587  TIP3      8992            0.0000000000
     51876      9192  TIP3      H2             33.2449357957      -31.2662428030      -21.8609958945  TIP3      8992            0.0000000000
     51877      9193  TIP3      OH2            22.3292611890      -24.8912652779      -29.5583554271  TIP3      8993            0.0000000000
     51878      9193  TIP3      H1             23.0513585397      -24.6496170224      -28.9543981201  TIP3      8993            0.0000000000
     51879      9193  TIP3      H2             22.8523636180      -25.2974629774      -30.2736479784  TIP3      8993            0.0000000000
     51880      9194  TIP3      OH2            20.3706073205      -31.9004546433      -29.9739657553  TIP3      8994            0.0000000000
     51881      9194  TIP3      H1             20.7235124366      -31.0217398680      -29.7226053096  TIP3      8994            0.0000000000
     51882      9194  TIP3      H2             19.8784311772      -31.6843935024      -30.7762269008  TIP3      8994            0.0000000000
     51883      9195  TIP3      OH2            21.7170854850      -38.1696723415      -21.5735060060  TIP3      8995            0.0000000000
     51884      9195  TIP3      H1             21.5233591220      -37.2934372970      -21.9358356643  TIP3      8995            0.0000000000
     51885      9195  TIP3      H2             21.3559633889      -38.7611247923      -22.2629846359  TIP3      8995            0.0000000000
     51886      9196  TIP3      OH2            19.9829447359      -23.8301422539      -26.0692977034  TIP3      8996            0.0000000000
     51887      9196  TIP3      H1             19.4720839150      -23.1442380483      -25.6255072814  TIP3      8996            0.0000000000
     51888      9196  TIP3      H2             20.8696989452      -23.4570195895      -26.0536351922  TIP3      8996            0.0000000000
     51889      9197  TIP3      OH2            28.4484659256      -21.9960673322      -31.1647732458  TIP3      8997            0.0000000000
     51890      9197  TIP3      H1             27.9809235893      -22.8570027785      -31.0906997905  TIP3      8997            0.0000000000
     51891      9197  TIP3      H2             29.2704787465      -22.2945645762      -31.6185111171  TIP3      8997            0.0000000000
     51892      9198  TIP3      OH2            32.9652580010      -22.7936074243      -31.0052423854  TIP3      8998            0.0000000000
     51893      9198  TIP3      H1             33.2671244396      -23.4136256314      -30.3201143258  TIP3      8998            0.0000000000
     51894      9198  TIP3      H2             33.7640493854      -22.6956628412      -31.5629206998  TIP3      8998            0.0000000000
     51895      9199  TIP3      OH2            23.8523259543      -26.8591009108      -31.2205617768  TIP3      8999            0.0000000000
     51896      9199  TIP3      H1             24.1359746831      -27.1279223123      -30.3326739199  TIP3      8999            0.0000000000
     51897      9199  TIP3      H2             24.6959566176      -26.9503717459      -31.7124649536  TIP3      8999            0.0000000000
     51898      9200  TIP3      OH2            29.4237503279      -25.3439308561      -31.4672329698  TIP3      9000            0.0000000000
     51899      9200  TIP3      H1             29.1160754681      -25.5124329009      -30.5593410595  TIP3      9000            0.0000000000
     51900      9200  TIP3      H2             29.4070431626      -26.2686262223      -31.8118999976  TIP3      9000            0.0000000000
     51901      9201  TIP3      OH2            25.1699086179      -28.5603618035      -28.5453617213  TIP3      9001            0.0000000000
     51902      9201  TIP3      H1             24.4552984766      -29.0322677383      -28.0672478466  TIP3      9001            0.0000000000
     51903      9201  TIP3      H2             25.5396444459      -29.2865924458      -29.0808151583  TIP3      9001            0.0000000000
     51904      9202  TIP3      OH2            26.3813410399      -30.4811414517      -30.5838698403  TIP3      9002            0.0000000000
     51905      9202  TIP3      H1             26.1366773073      -30.2493862850      -31.4994716411  TIP3      9002            0.0000000000
     51906      9202  TIP3      H2             27.3045344490      -30.1460979844      -30.5632831482  TIP3      9002            0.0000000000
     51907      9203  TIP3      OH2            35.4280040171      -28.2516805776      -30.9439508108  TIP3      9003            0.0000000000
     51908      9203  TIP3      H1             35.0873027901      -28.5342050594      -31.8241143280  TIP3      9003            0.0000000000
     51909      9203  TIP3      H2             35.2703335855      -27.2758734624      -30.9574741181  TIP3      9003            0.0000000000
     51910      9204  TIP3      OH2            25.8801390219      -20.0705769701      -29.2017034688  TIP3      9004            0.0000000000
     51911      9204  TIP3      H1             26.8019075096      -20.1146319936      -28.9200670378  TIP3      9004            0.0000000000
     51912      9204  TIP3      H2             25.9604650873      -19.4042482330      -29.9114640682  TIP3      9004            0.0000000000
     51913      9205  TIP3      OH2            19.5399565836      -25.2772888012      -30.0415647732  TIP3      9005            0.0000000000
     51914      9205  TIP3      H1             20.5165460554      -25.2265531318      -29.9678688905  TIP3      9005            0.0000000000
     51915      9205  TIP3      H2             19.3973257249      -25.9051396667      -30.7927164829  TIP3      9005            0.0000000000
     51916      9206  TIP3      OH2            35.6740431434      -27.1936578103      -27.0951279938  TIP3      9006            0.0000000000
     51917      9206  TIP3      H1             36.6395229313      -27.1387943755      -27.2066650513  TIP3      9006            0.0000000000
     51918      9206  TIP3      H2             35.6297459358      -27.6871666504      -26.2457582897  TIP3      9006            0.0000000000
     51919      9207  TIP3      OH2            36.2753705740      -28.7025276172      -24.9404952362  TIP3      9007            0.0000000000
     51920      9207  TIP3      H1             35.4720958490      -29.2694900622      -24.9419766589  TIP3      9007            0.0000000000
     51921      9207  TIP3      H2             36.8840405315      -29.3576718051      -24.5923568535  TIP3      9007            0.0000000000
     51922      9208  TIP3      OH2            37.0608482245      -29.2601881813      -28.9627962553  TIP3      9008            0.0000000000
     51923      9208  TIP3      H1             36.4408460297      -29.0779386435      -29.6970975017  TIP3      9008            0.0000000000
     51924      9208  TIP3      H2             36.5764553608      -28.8967185116      -28.2038084693  TIP3      9008            0.0000000000
     51925      9209  TIP3      OH2            35.6702205606      -32.0754499296      -30.9196584118  TIP3      9009            0.0000000000
     51926      9209  TIP3      H1             35.0821201701      -31.5295331562      -30.3701097986  TIP3      9009            0.0000000000
     51927      9209  TIP3      H2             35.0437796917      -32.6662615826      -31.3639043183  TIP3      9009            0.0000000000
     51928      9210  TIP3      OH2            34.2895649519      -30.3924363054      -24.3732036215  TIP3      9010            0.0000000000
     51929      9210  TIP3      H1             33.9804714098      -31.2127743271      -24.8215626404  TIP3      9010            0.0000000000
     51930      9210  TIP3      H2             33.7537908377      -30.4541814694      -23.5459139605  TIP3      9010            0.0000000000
     51931      9211  TIP3      OH2            19.2812657789      -29.9860516195      -20.1090540119  TIP3      9011            0.0000000000
     51932      9211  TIP3      H1             19.0854909975      -30.0905547123      -21.0497148182  TIP3      9011            0.0000000000
     51933      9211  TIP3      H2             20.2434242152      -30.1654886730      -20.0313076160  TIP3      9011            0.0000000000
     51934      9212  TIP3      OH2            34.2606242131      -34.5798142468      -31.4279632619  TIP3      9012            0.0000000000
     51935      9212  TIP3      H1             34.4280420016      -34.6674717153      -30.4867046451  TIP3      9012            0.0000000000
     51936      9212  TIP3      H2             33.2913657207      -34.7341149956      -31.4519863029  TIP3      9012            0.0000000000
     51937      9213  TIP3      OH2            33.6861612427      -32.9224850501      -25.6034943019  TIP3      9013            0.0000000000
     51938      9213  TIP3      H1             33.8747315239      -33.8482923496      -25.8565985921  TIP3      9013            0.0000000000
     51939      9213  TIP3      H2             34.0918400808      -32.4486543730      -26.3697580088  TIP3      9013            0.0000000000
     51940      9214  TIP3      OH2            34.1951556998      -32.4679564268      -21.1179154486  TIP3      9014            0.0000000000
     51941      9214  TIP3      H1             35.0955746894      -32.1651509691      -20.8959391027  TIP3      9014            0.0000000000
     51942      9214  TIP3      H2             34.0134792416      -33.0642018943      -20.3757818689  TIP3      9014            0.0000000000
     51943      9215  TIP3      OH2            34.2085595007      -35.5615025656      -26.2615812602  TIP3      9015            0.0000000000
     51944      9215  TIP3      H1             34.7052569427      -35.8959892110      -25.4843091298  TIP3      9015            0.0000000000
     51945      9215  TIP3      H2             34.3202067905      -36.2891113869      -26.9165343864  TIP3      9015            0.0000000000
     51946      9216  TIP3      OH2            36.4049688424      -35.5184668902      -29.4968737071  TIP3      9016            0.0000000000
     51947      9216  TIP3      H1             36.9507846116      -36.0472910073      -30.1091362368  TIP3      9016            0.0000000000
     51948      9216  TIP3      H2             36.5217127578      -34.6302188675      -29.8708771154  TIP3      9016            0.0000000000
     51949      9217  TIP3      OH2            18.9887712071      -35.6021876646      -26.2279266320  TIP3      9017            0.0000000000
     51950      9217  TIP3      H1             18.0294374555      -35.7220314810      -26.3613723101  TIP3      9017            0.0000000000
     51951      9217  TIP3      H2             19.2181470375      -35.1078947528      -27.0409289271  TIP3      9017            0.0000000000
     51952      9218  TIP3      OH2            33.3617779983      -21.0354991377      -24.4407062423  TIP3      9018            0.0000000000
     51953      9218  TIP3      H1             34.0497564980      -21.0986292156      -25.1425857953  TIP3      9018            0.0000000000
     51954      9218  TIP3      H2             33.5013523736      -20.1343378481      -24.1212442100  TIP3      9018            0.0000000000
     51955      9219  TIP3      OH2            33.6556527318      -36.7816774533      -22.3261766086  TIP3      9019            0.0000000000
     51956      9219  TIP3      H1             34.3867845822      -36.9249243878      -22.9711002860  TIP3      9019            0.0000000000
     51957      9219  TIP3      H2             32.8988037603      -37.1988231131      -22.7795080105  TIP3      9019            0.0000000000
     51958      9220  TIP3      OH2            35.6110645047      -36.6614453578      -24.0979450384  TIP3      9020            0.0000000000
     51959      9220  TIP3      H1             36.1535959434      -37.4487749584      -24.2853817121  TIP3      9020            0.0000000000
     51960      9220  TIP3      H2             36.2940196439      -35.9598400933      -24.0237793448  TIP3      9020            0.0000000000
     51961      9221  TIP3      OH2            20.9810797954      -37.1566699255      -24.3203517851  TIP3      9021            0.0000000000
     51962      9221  TIP3      H1             20.1910633223      -37.2701200365      -24.8792211207  TIP3      9021            0.0000000000
     51963      9221  TIP3      H2             21.2089932384      -38.0782909179      -24.0938458895  TIP3      9021            0.0000000000
     51964      9222  TIP3      OH2            20.2311779488      -37.2833627624      -28.1369166310  TIP3      9022            0.0000000000
     51965      9222  TIP3      H1             20.4735455792      -36.8462228076      -28.9769241564  TIP3      9022            0.0000000000
     51966      9222  TIP3      H2             19.3663484301      -36.9002516310      -27.9308389151  TIP3      9022            0.0000000000
     51967      9223  TIP3      OH2            25.7852970085      -37.2622199272      -24.2788413913  TIP3      9023            0.0000000000
     51968      9223  TIP3      H1             26.6656948240      -36.8911243257      -24.1068025805  TIP3      9023            0.0000000000
     51969      9223  TIP3      H2             25.6508091489      -37.7903824088      -23.4726426590  TIP3      9023            0.0000000000
     51970      9224  TIP3      OH2            31.2137300208      -37.7873406795      -23.0630557771  TIP3      9024            0.0000000000
     51971      9224  TIP3      H1             30.6837933593      -37.9152860333      -23.8505461615  TIP3      9024            0.0000000000
     51972      9224  TIP3      H2             31.2995521854      -38.7050589668      -22.7567449368  TIP3      9024            0.0000000000
     51973      9225  TIP3      OH2            32.1238180662      -36.8866116455      -27.8752289977  TIP3      9025            0.0000000000
     51974      9225  TIP3      H1             31.7083495841      -36.0243773494      -27.6898456678  TIP3      9025            0.0000000000
     51975      9225  TIP3      H2             32.4338608261      -37.1405417516      -26.9947239697  TIP3      9025            0.0000000000
     51976      9226  TIP3      OH2            21.2882296195      -35.9310290068      -30.1554263486  TIP3      9026            0.0000000000
     51977      9226  TIP3      H1             21.8715853193      -36.4875366852      -30.7170925445  TIP3      9026            0.0000000000
     51978      9226  TIP3      H2             21.9010186776      -35.6836186672      -29.4416783218  TIP3      9026            0.0000000000
     51979      9227  TIP3      OH2            26.5172558121      -35.5963387615      -27.1577548801  TIP3      9027            0.0000000000
     51980      9227  TIP3      H1             26.8592961166      -36.0351754448      -26.3576620828  TIP3      9027            0.0000000000
     51981      9227  TIP3      H2             27.0022305213      -34.7549972323      -27.0876177158  TIP3      9027            0.0000000000
     51982      9228  TIP3      OH2            28.8797128686      -20.5074112599      -29.0314708832  TIP3      9028            0.0000000000
     51983      9228  TIP3      H1             29.8130771134      -20.4328106920      -29.3277789431  TIP3      9028            0.0000000000
     51984      9228  TIP3      H2             28.5495392688      -20.9936645976      -29.8232789611  TIP3      9028            0.0000000000
     51985      9229  TIP3      OH2            35.1928875650      -21.0322483047      -26.4906072075  TIP3      9029            0.0000000000
     51986      9229  TIP3      H1             35.0893695911      -21.9156971440      -26.9171620858  TIP3      9029            0.0000000000
     51987      9229  TIP3      H2             35.3610749964      -20.4835473306      -27.2792836396  TIP3      9029            0.0000000000
     51988      9230  TIP3      OH2            37.3602441142      -31.4547972767      -25.1909738024  TIP3      9030            0.0000000000
     51989      9230  TIP3      H1             37.2262632864      -30.9179919209      -25.9875729755  TIP3      9030            0.0000000000
     51990      9230  TIP3      H2             36.5753934082      -32.0216772278      -25.2708802091  TIP3      9030            0.0000000000
     51991      9231  TIP3      OH2            37.2614329482      -34.5072076470      -23.6301340601  TIP3      9031            0.0000000000
     51992      9231  TIP3      H1             38.2027592817      -34.4901254572      -23.4008687250  TIP3      9031            0.0000000000
     51993      9231  TIP3      H2             37.3509325151      -34.6567194575      -24.6024924478  TIP3      9031            0.0000000000
     51994      9232  TIP3      OH2            36.5037963291      -19.8163958853      -24.5056435154  TIP3      9032            0.0000000000
     51995      9232  TIP3      H1             36.1206267632      -20.2156513079      -25.3184083823  TIP3      9032            0.0000000000
     51996      9232  TIP3      H2             36.5327846151      -20.6143454479      -23.9305216058  TIP3      9032            0.0000000000
     51997      9233  TIP3      OH2            37.2421770577      -21.9548049839      -23.0792857833  TIP3      9033            0.0000000000
     51998      9233  TIP3      H1             37.3442813447      -22.8947117777      -23.2533660044  TIP3      9033            0.0000000000
     51999      9233  TIP3      H2             38.1721401229      -21.6783738394      -23.1530465287  TIP3      9033            0.0000000000
     52000      9234  TIP3      OH2            36.7987238615      -31.3905735701      -20.7796667165  TIP3      9034            0.0000000000
     52001      9234  TIP3      H1             37.2810834404      -32.0774339780      -21.2768266390  TIP3      9034            0.0000000000
     52002      9234  TIP3      H2             37.2596173046      -31.3875246377      -19.9178633433  TIP3      9034            0.0000000000
     52003      9235  TIP3      OH2            37.0197192341      -35.4375450586      -26.1572820429  TIP3      9035            0.0000000000
     52004      9235  TIP3      H1             36.1242699332      -35.5053502489      -26.5200949560  TIP3      9035            0.0000000000
     52005      9235  TIP3      H2             37.5262337785      -35.3485378259      -26.9675840526  TIP3      9035            0.0000000000
     52006      9236  TIP3      OH2           -26.7168673324       -9.4762826608      -24.2048579263  TIP3      9036            0.0000000000
     52007      9236  TIP3      H1            -26.3496797521       -8.5905841072      -24.0404245448  TIP3      9036            0.0000000000
     52008      9236  TIP3      H2            -26.9295734432       -9.3884741747      -25.1572683824  TIP3      9036            0.0000000000
     52009      9237  TIP3      OH2           -27.3647745964      -10.7461005904      -20.9966090019  TIP3      9037            0.0000000000
     52010      9237  TIP3      H1            -27.3767595274      -10.7361623915      -20.0273044986  TIP3      9037            0.0000000000
     52011      9237  TIP3      H2            -26.3909703745      -10.7712735403      -21.1344916724  TIP3      9037            0.0000000000
     52012      9238  TIP3      OH2           -23.8276416813       -8.1297158182      -22.5423440354  TIP3      9038            0.0000000000
     52013      9238  TIP3      H1            -24.1339558951       -8.5917490208      -21.7270329771  TIP3      9038            0.0000000000
     52014      9238  TIP3      H2            -23.9919129797       -7.2315429057      -22.2645283942  TIP3      9038            0.0000000000
     52015      9239  TIP3      OH2           -37.0208156189      -13.4285259763      -26.4383244077  TIP3      9039            0.0000000000
     52016      9239  TIP3      H1            -36.5141166500      -12.6386712928      -26.2122560329  TIP3      9039            0.0000000000
     52017      9239  TIP3      H2            -37.8640841800      -13.3250398979      -25.9462984589  TIP3      9039            0.0000000000
     52018      9240  TIP3      OH2           -36.7917953016      -10.1546630573      -22.8316019735  TIP3      9040            0.0000000000
     52019      9240  TIP3      H1            -36.5314106921      -11.0426909191      -22.5027754619  TIP3      9040            0.0000000000
     52020      9240  TIP3      H2            -36.2525472042      -10.0888845786      -23.6313241599  TIP3      9040            0.0000000000
     52021      9241  TIP3      OH2           -26.8722479667       -2.6255297329      -22.4069734025  TIP3      9041            0.0000000000
     52022      9241  TIP3      H1            -25.9791141160       -2.9299191239      -22.7027246931  TIP3      9041            0.0000000000
     52023      9241  TIP3      H2            -26.7125451440       -2.1495908005      -21.5822963789  TIP3      9041            0.0000000000
     52024      9242  TIP3      OH2           -29.3080297100       -7.9140588347      -20.5553935239  TIP3      9042            0.0000000000
     52025      9242  TIP3      H1            -29.2331191350       -8.7415097739      -21.0478786995  TIP3      9042            0.0000000000
     52026      9242  TIP3      H2            -28.5229466233       -8.0105253830      -19.9898635600  TIP3      9042            0.0000000000
     52027      9243  TIP3      OH2           -25.4462501027      -15.3279301079      -24.5510248303  TIP3      9043            0.0000000000
     52028      9243  TIP3      H1            -24.7724332989      -15.9472815737      -24.2291175573  TIP3      9043            0.0000000000
     52029      9243  TIP3      H2            -25.0659771459      -14.4766318868      -24.2778053783  TIP3      9043            0.0000000000
     52030      9244  TIP3      OH2           -35.5403602341      -12.6002028517      -22.5946074020  TIP3      9044            0.0000000000
     52031      9244  TIP3      H1            -36.2013731516      -12.9778140652      -21.9623723466  TIP3      9044            0.0000000000
     52032      9244  TIP3      H2            -35.3062700852      -13.3194500190      -23.2078451127  TIP3      9044            0.0000000000
     52033      9245  TIP3      OH2           -30.7305216139      -11.3740268590      -22.8483402349  TIP3      9045            0.0000000000
     52034      9245  TIP3      H1            -30.8147372380      -12.0903913715      -22.1788799327  TIP3      9045            0.0000000000
     52035      9245  TIP3      H2            -31.2623951531      -11.8014758902      -23.5637978426  TIP3      9045            0.0000000000
     52036      9246  TIP3      OH2           -26.9139960971       -6.9500351335      -25.6497740948  TIP3      9046            0.0000000000
     52037      9246  TIP3      H1            -27.1133525727       -6.9637953727      -26.5999377011  TIP3      9046            0.0000000000
     52038      9246  TIP3      H2            -27.2197859192       -6.0379889256      -25.4309040652  TIP3      9046            0.0000000000
     52039      9247  TIP3      OH2           -37.3536618615       -7.1610766561      -27.2317392627  TIP3      9047            0.0000000000
     52040      9247  TIP3      H1            -37.2977694495       -6.6376087751      -28.0654762900  TIP3      9047            0.0000000000
     52041      9247  TIP3      H2            -37.0404861514       -6.5374058266      -26.5645260849  TIP3      9047            0.0000000000
     52042      9248  TIP3      OH2           -30.2158182573      -18.9135133109      -21.6489011883  TIP3      9048            0.0000000000
     52043      9248  TIP3      H1            -30.5506057125      -19.8179333587      -21.7208617466  TIP3      9048            0.0000000000
     52044      9248  TIP3      H2            -31.0351898741      -18.4393760560      -21.3672595860  TIP3      9048            0.0000000000
     52045      9249  TIP3      OH2           -24.8901440285       -3.7869963853      -23.8254430879  TIP3      9049            0.0000000000
     52046      9249  TIP3      H1            -24.6967746642       -4.6371244036      -24.2787024580  TIP3      9049            0.0000000000
     52047      9249  TIP3      H2            -24.0692838905       -3.2811930816      -24.0132288661  TIP3      9049            0.0000000000
     52048      9250  TIP3      OH2           -23.7331847447       -5.8335406728      -25.0461650978  TIP3      9050            0.0000000000
     52049      9250  TIP3      H1            -24.2744562504       -6.2088579808      -25.7676800648  TIP3      9050            0.0000000000
     52050      9250  TIP3      H2            -23.7438064693       -6.5757728865      -24.4166935903  TIP3      9050            0.0000000000
     52051      9251  TIP3      OH2           -27.5642925428       -9.9221376330      -26.8152461309  TIP3      9051            0.0000000000
     52052      9251  TIP3      H1            -28.0926061071       -9.0977273440      -26.9039072529  TIP3      9051            0.0000000000
     52053      9251  TIP3      H2            -26.9120571745       -9.8267481301      -27.5417245728  TIP3      9051            0.0000000000
     52054      9252  TIP3      OH2           -27.5846332865      -11.2947669859      -30.1247366691  TIP3      9052            0.0000000000
     52055      9252  TIP3      H1            -27.0667573605      -10.8526038518      -29.4299578825  TIP3      9052            0.0000000000
     52056      9252  TIP3      H2            -27.2494421626      -12.2011068716      -30.0592549008  TIP3      9052            0.0000000000
     52057      9253  TIP3      OH2           -24.0571893857      -10.1144872572      -25.9128805185  TIP3      9053            0.0000000000
     52058      9253  TIP3      H1            -24.6134115849      -10.1521272910      -25.1144739838  TIP3      9053            0.0000000000
     52059      9253  TIP3      H2            -23.2220072319      -10.4975851798      -25.5243775790  TIP3      9053            0.0000000000
     52060      9254  TIP3      OH2           -31.1871220057       -5.9102583988      -21.5714318145  TIP3      9054            0.0000000000
     52061      9254  TIP3      H1            -30.9185421734       -5.9150022397      -22.4952242837  TIP3      9054            0.0000000000
     52062      9254  TIP3      H2            -30.4888141017       -6.4794656433      -21.1832984666  TIP3      9054            0.0000000000
     52063      9255  TIP3      OH2           -25.4289551444      -10.5105625465      -28.2470591026  TIP3      9055            0.0000000000
     52064      9255  TIP3      H1            -24.8741396353      -10.3649291255      -27.4451862076  TIP3      9055            0.0000000000
     52065      9255  TIP3      H2            -24.9028598054      -10.0709640618      -28.9632096434  TIP3      9055            0.0000000000
     52066      9256  TIP3      OH2           -27.7235157395       -4.2144473893      -24.9657207261  TIP3      9056            0.0000000000
     52067      9256  TIP3      H1            -27.5986661641       -3.7671896218      -24.1149364656  TIP3      9056            0.0000000000
     52068      9256  TIP3      H2            -27.9286709744       -3.4883515374      -25.5787973179  TIP3      9056            0.0000000000
     52069      9257  TIP3      OH2           -21.6790175581      -19.5255763387      -27.9809742018  TIP3      9057            0.0000000000
     52070      9257  TIP3      H1            -22.5342341955      -19.4921873996      -27.4678068401  TIP3      9057            0.0000000000
     52071      9257  TIP3      H2            -22.0102375220      -19.1763517663      -28.8134428222  TIP3      9057            0.0000000000
     52072      9258  TIP3      OH2           -34.8327105562      -10.3623093246      -26.0534457351  TIP3      9058            0.0000000000
     52073      9258  TIP3      H1            -34.4835909051       -9.5921466215      -26.5447903454  TIP3      9058            0.0000000000
     52074      9258  TIP3      H2            -34.1160516578      -11.0108575153      -26.1557855364  TIP3      9058            0.0000000000
     52075      9259  TIP3      OH2           -20.3812862564       -4.9168224060      -29.7743945866  TIP3      9059            0.0000000000
     52076      9259  TIP3      H1            -20.1359560626       -3.9717800754      -29.6730364513  TIP3      9059            0.0000000000
     52077      9259  TIP3      H2            -19.4998350243       -5.3288875977      -29.6390194603  TIP3      9059            0.0000000000
     52078      9260  TIP3      OH2           -37.0131765231       -4.6119281582      -20.3729274339  TIP3      9060            0.0000000000
     52079      9260  TIP3      H1            -36.6353617696       -5.4839672802      -20.5796327581  TIP3      9060            0.0000000000
     52080      9260  TIP3      H2            -36.9837941250       -4.7211185044      -19.3790192784  TIP3      9060            0.0000000000
     52081      9261  TIP3      OH2           -28.0675809443       -1.5225070175      -26.4617131691  TIP3      9061            0.0000000000
     52082      9261  TIP3      H1            -28.1232591023       -1.3475733140      -27.4245604744  TIP3      9061            0.0000000000
     52083      9261  TIP3      H2            -28.1006482423       -0.5990199204      -26.1200048973  TIP3      9061            0.0000000000
     52084      9262  TIP3      OH2           -34.1876865310       -2.6448605149      -24.6389318914  TIP3      9062            0.0000000000
     52085      9262  TIP3      H1            -34.3732243802       -2.6592023358      -23.6993446121  TIP3      9062            0.0000000000
     52086      9262  TIP3      H2            -35.0417257226       -2.9080597519      -25.0292216233  TIP3      9062            0.0000000000
     52087      9263  TIP3      OH2           -24.9130704311       -2.1050190761      -29.5845309292  TIP3      9063            0.0000000000
     52088      9263  TIP3      H1            -24.3711777263       -2.8102767396      -30.0171793806  TIP3      9063            0.0000000000
     52089      9263  TIP3      H2            -24.8753274363       -2.3291752984      -28.6339285493  TIP3      9063            0.0000000000
     52090      9264  TIP3      OH2           -25.3952373448       -2.0586374993      -26.8346640589  TIP3      9064            0.0000000000
     52091      9264  TIP3      H1            -26.3403195025       -1.8532062996      -26.6366012501  TIP3      9064            0.0000000000
     52092      9264  TIP3      H2            -25.2404201348       -2.7750339175      -26.2060028347  TIP3      9064            0.0000000000
     52093      9265  TIP3      OH2           -32.6280235892      -17.8469891977      -20.4466756649  TIP3      9065            0.0000000000
     52094      9265  TIP3      H1            -33.5296701861      -18.0811729508      -20.7407762097  TIP3      9065            0.0000000000
     52095      9265  TIP3      H2            -32.8686762168      -17.1274487171      -19.8434661659  TIP3      9065            0.0000000000
     52096      9266  TIP3      OH2           -23.9579075979       -9.4484219014      -30.1203823583  TIP3      9066            0.0000000000
     52097      9266  TIP3      H1            -23.9934970695       -9.3030303327      -31.0830947103  TIP3      9066            0.0000000000
     52098      9266  TIP3      H2            -23.0009348161       -9.4811665801      -29.9675181973  TIP3      9066            0.0000000000
     52099      9267  TIP3      OH2           -28.2568027802      -16.1790538676      -29.9649442504  TIP3      9067            0.0000000000
     52100      9267  TIP3      H1            -28.5227936879      -16.4618963463      -29.0589810238  TIP3      9067            0.0000000000
     52101      9267  TIP3      H2            -28.9563880515      -16.6394122079      -30.4757255116  TIP3      9067            0.0000000000
     52102      9268  TIP3      OH2           -32.3237751503      -12.8714639034      -24.5589682304  TIP3      9068            0.0000000000
     52103      9268  TIP3      H1            -33.2556897007      -13.1972939008      -24.5799853865  TIP3      9068            0.0000000000
     52104      9268  TIP3      H2            -31.9143106881      -13.6048840107      -25.0736624361  TIP3      9068            0.0000000000
     52105      9269  TIP3      OH2           -26.9130121393      -12.1195863967      -25.4756825454  TIP3      9069            0.0000000000
     52106      9269  TIP3      H1            -27.1460303061      -11.3115938923      -26.0012792528  TIP3      9069            0.0000000000
     52107      9269  TIP3      H2            -26.3321895533      -12.5439255936      -26.1279404819  TIP3      9069            0.0000000000
     52108      9270  TIP3      OH2           -31.9968810045      -15.4766327553      -31.1274122040  TIP3      9070            0.0000000000
     52109      9270  TIP3      H1            -32.3168849861      -15.9922853685      -30.3471142980  TIP3      9070            0.0000000000
     52110      9270  TIP3      H2            -32.6887730480      -14.8216582755      -31.2465584497  TIP3      9070            0.0000000000
     52111      9271  TIP3      OH2           -37.2368512997      -15.8765859539      -23.6679256985  TIP3      9071            0.0000000000
     52112      9271  TIP3      H1            -36.2918636129      -16.0133716146      -23.4825675589  TIP3      9071            0.0000000000
     52113      9271  TIP3      H2            -37.2535985781      -15.9143960896      -24.6448213924  TIP3      9071            0.0000000000
     52114      9272  TIP3      OH2           -37.3081822416      -15.1055058966      -28.4081367831  TIP3      9072            0.0000000000
     52115      9272  TIP3      H1            -36.6958721107      -14.6977066371      -29.0404040634  TIP3      9072            0.0000000000
     52116      9272  TIP3      H2            -37.2616606234      -14.4277829423      -27.6747986310  TIP3      9072            0.0000000000
     52117      9273  TIP3      OH2           -29.5946183772      -15.5356555964      -23.8239490034  TIP3      9073            0.0000000000
     52118      9273  TIP3      H1            -30.5332281910      -15.7774654391      -23.8667149459  TIP3      9073            0.0000000000
     52119      9273  TIP3      H2            -29.2010590133      -16.1083796330      -23.1346315850  TIP3      9073            0.0000000000
     52120      9274  TIP3      OH2           -34.8606095297      -13.9277542351      -24.9698578912  TIP3      9074            0.0000000000
     52121      9274  TIP3      H1            -35.7184776909      -13.8687756561      -25.4284705851  TIP3      9074            0.0000000000
     52122      9274  TIP3      H2            -34.7538575658      -14.9081538915      -24.9740146688  TIP3      9074            0.0000000000
     52123      9275  TIP3      OH2           -30.7997394221      -12.8038890732      -27.5437440083  TIP3      9075            0.0000000000
     52124      9275  TIP3      H1            -30.5753234749      -13.6565623059      -27.1136531851  TIP3      9075            0.0000000000
     52125      9275  TIP3      H2            -31.7598178505      -12.8857208523      -27.5530771379  TIP3      9075            0.0000000000
     52126      9276  TIP3      OH2           -25.2184264517      -16.3517833419      -20.4845190673  TIP3      9076            0.0000000000
     52127      9276  TIP3      H1            -26.0603975838      -16.6073412620      -20.1070055778  TIP3      9076            0.0000000000
     52128      9276  TIP3      H2            -25.1219067870      -16.9946009632      -21.2066469085  TIP3      9076            0.0000000000
     52129      9277  TIP3      OH2           -32.9161967198      -12.3298860269      -29.6803911655  TIP3      9077            0.0000000000
     52130      9277  TIP3      H1            -33.1961762582      -13.1799923005      -30.0209772878  TIP3      9077            0.0000000000
     52131      9277  TIP3      H2            -31.9495027185      -12.3375315910      -29.8368347884  TIP3      9077            0.0000000000
     52132      9278  TIP3      OH2           -34.3675137489      -16.5442819135      -24.7049185462  TIP3      9078            0.0000000000
     52133      9278  TIP3      H1            -34.1908830637      -17.4729518606      -24.5201544782  TIP3      9078            0.0000000000
     52134      9278  TIP3      H2            -33.5139122919      -16.2969685579      -25.1366939955  TIP3      9078            0.0000000000
     52135      9279  TIP3      OH2           -29.4998392766       -8.0857245304      -27.1950626030  TIP3      9079            0.0000000000
     52136      9279  TIP3      H1            -30.2084077035       -8.5444597709      -27.6904720399  TIP3      9079            0.0000000000
     52137      9279  TIP3      H2            -29.9731079334       -7.8529572858      -26.3623278198  TIP3      9079            0.0000000000
     52138      9280  TIP3      OH2           -25.8528183429      -15.4520297648      -29.2803987183  TIP3      9080            0.0000000000
     52139      9280  TIP3      H1            -26.7319256957      -15.6096853087      -29.7105847718  TIP3      9080            0.0000000000
     52140      9280  TIP3      H2            -25.9967511123      -14.5758206314      -28.8784246317  TIP3      9080            0.0000000000
     52141      9281  TIP3      OH2           -25.2979222212      -13.1464491350      -27.8097888357  TIP3      9081            0.0000000000
     52142      9281  TIP3      H1            -24.4084314255      -13.1638871496      -27.4335697538  TIP3      9081            0.0000000000
     52143      9281  TIP3      H2            -25.2138784494      -12.4439055853      -28.4880906193  TIP3      9081            0.0000000000
     52144      9282  TIP3      OH2           -27.7216988235       -6.7459168695      -28.7138062743  TIP3      9082            0.0000000000
     52145      9282  TIP3      H1            -27.9061330484       -5.8386672621      -28.3814006763  TIP3      9082            0.0000000000
     52146      9282  TIP3      H2            -28.3202967520       -7.2956968089      -28.1645173158  TIP3      9082            0.0000000000
     52147      9283  TIP3      OH2           -22.3079669949       -4.3762229997      -27.7361572026  TIP3      9083            0.0000000000
     52148      9283  TIP3      H1            -22.5937483090       -5.0157586863      -27.0666221762  TIP3      9083            0.0000000000
     52149      9283  TIP3      H2            -21.6798400485       -4.8988455872      -28.2666379098  TIP3      9083            0.0000000000
     52150      9284  TIP3      OH2           -32.2186335031       -5.2666047190      -24.2695700051  TIP3      9084            0.0000000000
     52151      9284  TIP3      H1            -31.8521872839       -4.4125370802      -24.5703851377  TIP3      9084            0.0000000000
     52152      9284  TIP3      H2            -32.8861007675       -5.3970221047      -24.9568411067  TIP3      9084            0.0000000000
     52153      9285  TIP3      OH2           -35.8400463424      -10.5075072230      -29.5893230779  TIP3      9085            0.0000000000
     52154      9285  TIP3      H1            -35.1174430452      -10.0140253580      -29.1465855862  TIP3      9085            0.0000000000
     52155      9285  TIP3      H2            -36.5926907754      -10.3500676752      -29.0013403928  TIP3      9085            0.0000000000
     52156      9286  TIP3      OH2           -30.6188416788       -7.4430951769      -24.8518406299  TIP3      9086            0.0000000000
     52157      9286  TIP3      H1            -31.2424852750       -6.7287781663      -24.6037046293  TIP3      9086            0.0000000000
     52158      9286  TIP3      H2            -30.7579002577       -8.1389630353      -24.2039334184  TIP3      9086            0.0000000000
     52159      9287  TIP3      OH2           -31.7454780511       -2.8283010885      -25.7165278823  TIP3      9087            0.0000000000
     52160      9287  TIP3      H1            -32.7060745777       -2.6944363164      -25.5323356258  TIP3      9087            0.0000000000
     52161      9287  TIP3      H2            -31.3945481820       -2.1306916113      -25.1605927003  TIP3      9087            0.0000000000
     52162      9288  TIP3      OH2           -24.1196931252       -6.1953029844      -29.8459990394  TIP3      9088            0.0000000000
     52163      9288  TIP3      H1            -23.7794008098       -6.6292826124      -29.0380713931  TIP3      9088            0.0000000000
     52164      9288  TIP3      H2            -24.9839228790       -6.6299779241      -29.9335701860  TIP3      9088            0.0000000000
     52165      9289  TIP3      OH2           -19.8484637338       -2.2159879077      -29.2953568159  TIP3      9089            0.0000000000
     52166      9289  TIP3      H1            -19.2495030653       -1.5353177718      -29.6322210117  TIP3      9089            0.0000000000
     52167      9289  TIP3      H2            -20.6251676408       -1.6648884188      -29.0533244112  TIP3      9089            0.0000000000
     52168      9290  TIP3      OH2           -23.5076472748       -7.6602717842      -27.4547101043  TIP3      9090            0.0000000000
     52169      9290  TIP3      H1            -23.7501287870       -8.4201065547      -26.8892909850  TIP3      9090            0.0000000000
     52170      9290  TIP3      H2            -22.5318226198       -7.6912317293      -27.4536905235  TIP3      9090            0.0000000000
     52171      9291  TIP3      OH2           -30.1321421499       -5.1320484648      -31.0993228200  TIP3      9091            0.0000000000
     52172      9291  TIP3      H1            -30.2388967247       -5.6549215684      -31.9120627692  TIP3      9091            0.0000000000
     52173      9291  TIP3      H2            -30.7269480176       -5.6146319642      -30.4969508095  TIP3      9091            0.0000000000
     52174      9292  TIP3      OH2           -31.5792913961       -5.9711164784      -28.6088192671  TIP3      9092            0.0000000000
     52175      9292  TIP3      H1            -30.7328049323       -6.1497639625      -28.1617539297  TIP3      9092            0.0000000000
     52176      9292  TIP3      H2            -31.5452663123       -4.9907414653      -28.5023806304  TIP3      9092            0.0000000000
     52177      9293  TIP3      OH2           -34.6928033166       -8.2677753828      -28.1219596828  TIP3      9093            0.0000000000
     52178      9293  TIP3      H1            -35.5977546176       -8.0613822922      -27.8138733706  TIP3      9093            0.0000000000
     52179      9293  TIP3      H2            -34.4814961090       -7.5012806395      -28.6916359065  TIP3      9093            0.0000000000
     52180      9294  TIP3      OH2           -26.3859338531      -16.9315119881      -26.6614411893  TIP3      9094            0.0000000000
     52181      9294  TIP3      H1            -26.2832434007      -16.2393429122      -27.3382568310  TIP3      9094            0.0000000000
     52182      9294  TIP3      H2            -26.0780041653      -16.4601323762      -25.8662550245  TIP3      9094            0.0000000000
     52183      9295  TIP3      OH2           -28.3916195826       -4.1066349279      -28.0209151778  TIP3      9095            0.0000000000
     52184      9295  TIP3      H1            -29.3104897218       -3.7719114678      -28.0179301426  TIP3      9095            0.0000000000
     52185      9295  TIP3      H2            -27.9135674592       -3.3131333952      -28.3216749599  TIP3      9095            0.0000000000
     52186      9296  TIP3      OH2           -28.6202338655      -14.6953144512      -26.1658785324  TIP3      9096            0.0000000000
     52187      9296  TIP3      H1            -28.1348262831      -13.9468252437      -25.7884498501  TIP3      9096            0.0000000000
     52188      9296  TIP3      H2            -29.2043447315      -14.9348982632      -25.4082866621  TIP3      9096            0.0000000000
     52189      9297  TIP3      OH2           -28.7226425768      -17.6169984414      -25.2470716339  TIP3      9097            0.0000000000
     52190      9297  TIP3      H1            -29.0515470925      -16.7459159457      -24.9608262222  TIP3      9097            0.0000000000
     52191      9297  TIP3      H2            -27.9298460848      -17.3549016195      -25.7619845460  TIP3      9097            0.0000000000
     52192      9298  TIP3      OH2           -31.0559113557       -3.4006823929      -28.3183353089  TIP3      9098            0.0000000000
     52193      9298  TIP3      H1            -31.0838040315       -2.5477971573      -28.8083967558  TIP3      9098            0.0000000000
     52194      9298  TIP3      H2            -31.2198891149       -3.0268867298      -27.4236621392  TIP3      9098            0.0000000000
     52195      9299  TIP3      OH2           -32.6880451291      -16.6667961857      -28.7926284520  TIP3      9099            0.0000000000
     52196      9299  TIP3      H1            -32.6628919162      -16.0206645545      -28.0484163703  TIP3      9099            0.0000000000
     52197      9299  TIP3      H2            -31.8069225612      -17.0474899932      -28.6302474437  TIP3      9099            0.0000000000
     52198      9300  TIP3      OH2           -34.0948757285       -6.0559328525      -29.6400391297  TIP3      9100            0.0000000000
     52199      9300  TIP3      H1            -33.2052606069       -5.9575162199      -29.2201665786  TIP3      9100            0.0000000000
     52200      9300  TIP3      H2            -33.8857780622       -6.7515618659      -30.3029243774  TIP3      9100            0.0000000000
     52201      9301  TIP3      OH2           -35.9155590744      -13.3942833466      -30.1235122136  TIP3      9101            0.0000000000
     52202      9301  TIP3      H1            -35.5646079926      -12.5378420059      -29.8192259220  TIP3      9101            0.0000000000
     52203      9301  TIP3      H2            -36.5881697459      -13.1526110631      -30.7674465363  TIP3      9101            0.0000000000
     52204      9302  TIP3      OH2           -22.1412013636       -3.0188554278      -19.9980603526  TIP3      9102            0.0000000000
     52205      9302  TIP3      H1            -22.1349198422       -2.6840831702      -20.9051688931  TIP3      9102            0.0000000000
     52206      9302  TIP3      H2            -21.9938775576       -2.1695881207      -19.5226789486  TIP3      9102            0.0000000000
     52207      9303  TIP3      OH2           -35.2575754423      -18.3994207371      -21.0846869987  TIP3      9103            0.0000000000
     52208      9303  TIP3      H1            -35.3968416394      -18.3366914481      -22.0548265981  TIP3      9103            0.0000000000
     52209      9303  TIP3      H2            -35.2919941480      -19.3788901609      -21.0152282498  TIP3      9103            0.0000000000
     52210      9304  TIP3      OH2           -36.0936942736       -4.5776393150      -25.2758480381  TIP3      9104            0.0000000000
     52211      9304  TIP3      H1            -37.0285910711       -4.4462882384      -25.4489267619  TIP3      9104            0.0000000000
     52212      9304  TIP3      H2            -35.7398503986       -4.1790347766      -26.0953835548  TIP3      9104            0.0000000000
     52213      9305  TIP3      OH2           -28.0585019481       -3.1749467651      -31.1399462746  TIP3      9105            0.0000000000
     52214      9305  TIP3      H1            -28.6195176269       -3.9714599098      -31.0156917841  TIP3      9105            0.0000000000
     52215      9305  TIP3      H2            -27.2770253348       -3.5628872717      -31.5917787240  TIP3      9105            0.0000000000
     52216      9306  TIP3      OH2           -23.5513047890       -3.8536545766      -31.1545472498  TIP3      9106            0.0000000000
     52217      9306  TIP3      H1            -23.5364838333       -4.5446973664      -30.4581744682  TIP3      9106            0.0000000000
     52218      9306  TIP3      H2            -22.6978662357       -3.9944170036      -31.6060257002  TIP3      9106            0.0000000000
     52219      9307  TIP3      OH2           -32.7816342181       -8.0164416165      -31.0239827589  TIP3      9107            0.0000000000
     52220      9307  TIP3      H1            -32.6012011356       -8.4493533674      -30.1677797091  TIP3      9107            0.0000000000
     52221      9307  TIP3      H2            -31.8914289543       -8.0278462270      -31.4317715611  TIP3      9107            0.0000000000
     52222      9308  TIP3      OH2           -26.9960408816       -6.5474456376      -31.4111891546  TIP3      9108            0.0000000000
     52223      9308  TIP3      H1            -27.4420885353       -6.6555487808      -30.5429411157  TIP3      9108            0.0000000000
     52224      9308  TIP3      H2            -27.0683039677       -7.4850303251      -31.7061392745  TIP3      9108            0.0000000000
     52225      9309  TIP3      OH2           -31.3916471244       -9.7467122857      -28.5780635006  TIP3      9109            0.0000000000
     52226      9309  TIP3      H1            -31.5711714710      -10.3862302313      -27.8756116192  TIP3      9109            0.0000000000
     52227      9309  TIP3      H2            -31.0151405598      -10.3752534822      -29.2405562550  TIP3      9109            0.0000000000
     52228      9310  TIP3      OH2           -30.2956940234      -11.4000141786      -30.4086541240  TIP3      9110            0.0000000000
     52229      9310  TIP3      H1            -30.1888822009      -10.9503148434      -31.2496629445  TIP3      9110            0.0000000000
     52230      9310  TIP3      H2            -29.3679098353      -11.4526128465      -30.0952733667  TIP3      9110            0.0000000000
     52231      9311  TIP3      OH2           -21.0622175408       -9.3083847982      -31.0474315068  TIP3      9111            0.0000000000
     52232      9311  TIP3      H1            -21.2596218727       -9.5609628557      -31.9772026883  TIP3      9111            0.0000000000
     52233      9311  TIP3      H2            -21.0840992377       -8.3210288186      -31.1254025202  TIP3      9111            0.0000000000
     52234      9312  TIP3      OH2           -30.5375559269       -0.8738439604      -29.0115338962  TIP3      9112            0.0000000000
     52235      9312  TIP3      H1            -29.5932952520       -0.7492866382      -28.8471785177  TIP3      9112            0.0000000000
     52236      9312  TIP3      H2            -30.5723363678       -0.5147157031      -29.9207044363  TIP3      9112            0.0000000000
     52237      9313  TIP3      OH2           -36.7628531547       -5.8975524139      -29.5592787135  TIP3      9113            0.0000000000
     52238      9313  TIP3      H1            -35.7861165147       -5.8249450913      -29.5891065592  TIP3      9113            0.0000000000
     52239      9313  TIP3      H2            -36.9034912963       -6.4632808952      -30.3502992183  TIP3      9113            0.0000000000
     52240      9314  TIP3      OH2           -37.4136644783       -0.9356721223      -25.1017794497  TIP3      9114            0.0000000000
     52241      9314  TIP3      H1            -38.3733889794       -0.7623065984      -25.1436836997  TIP3      9114            0.0000000000
     52242      9314  TIP3      H2            -37.3242699546       -1.3960792320      -24.2467044430  TIP3      9114            0.0000000000
     52243      9315  TIP3      OH2           -36.8440738031       -2.6910919757      -22.9065286684  TIP3      9115            0.0000000000
     52244      9315  TIP3      H1            -36.7736708144       -3.6416480469      -23.0467422758  TIP3      9115            0.0000000000
     52245      9315  TIP3      H2            -37.7841967791       -2.6458326377      -22.6020622353  TIP3      9115            0.0000000000
     52246      9316  TIP3      OH2           -20.6953664072       -8.1287702875      -27.5305814607  TIP3      9116            0.0000000000
     52247      9316  TIP3      H1            -19.8790333818       -7.6382562654      -27.3035358423  TIP3      9116            0.0000000000
     52248      9316  TIP3      H2            -20.6954682751       -8.8396086564      -26.8711094946  TIP3      9116            0.0000000000
     52249      9317  TIP3      OH2           -19.8212323269      -10.3728603243      -28.9528096756  TIP3      9117            0.0000000000
     52250      9317  TIP3      H1            -20.3613740210      -10.1860766085      -29.7596333683  TIP3      9117            0.0000000000
     52251      9317  TIP3      H2            -19.9324991253       -9.5203945805      -28.4951250712  TIP3      9117            0.0000000000
     52252      9318  TIP3      OH2           -37.4438637371      -16.9054151948      -26.5214024568  TIP3      9118            0.0000000000
     52253      9318  TIP3      H1            -38.4266501823      -16.9327746271      -26.5774732123  TIP3      9118            0.0000000000
     52254      9318  TIP3      H2            -37.2714288320      -16.4417925374      -27.3732987426  TIP3      9118            0.0000000000
     52255      9319  TIP3      OH2           -22.8354879841       -2.0417874044      -24.1345382279  TIP3      9119            0.0000000000
     52256      9319  TIP3      H1            -22.3878184831       -2.1418084726      -25.0014102975  TIP3      9119            0.0000000000
     52257      9319  TIP3      H2            -22.4842282732       -1.1945157031      -23.8106527739  TIP3      9119            0.0000000000
     52258      9320  TIP3      OH2           -33.1530284802       -3.3659963971      -21.6495831811  TIP3      9120            0.0000000000
     52259      9320  TIP3      H1            -33.7038582998       -3.9444937359      -22.1818050142  TIP3      9120            0.0000000000
     52260      9320  TIP3      H2            -32.3080555893       -3.8578880350      -21.6824887750  TIP3      9120            0.0000000000
     52261      9321  TIP3      OH2           -28.0027048552      -16.9656770328      -22.0976947469  TIP3      9121            0.0000000000
     52262      9321  TIP3      H1            -28.5622854948      -17.5610321995      -21.5778865618  TIP3      9121            0.0000000000
     52263      9321  TIP3      H2            -27.6969827863      -17.5630001909      -22.8005919660  TIP3      9121            0.0000000000
     52264      9322  TIP3      OH2           -20.9376540649      -17.7448131557      -24.4266445427  TIP3      9122            0.0000000000
     52265      9322  TIP3      H1            -20.2828005184      -18.4283980735      -24.6375049549  TIP3      9122            0.0000000000
     52266      9322  TIP3      H2            -20.3256362052      -17.0428781970      -24.1156287700  TIP3      9122            0.0000000000
     52267      9323  TIP3      OH2           -35.6422811349      -18.9878289686      -23.6861936178  TIP3      9123            0.0000000000
     52268      9323  TIP3      H1            -36.0963362595      -18.7465147125      -24.5246898603  TIP3      9123            0.0000000000
     52269      9323  TIP3      H2            -35.0598945211      -19.7005837490      -23.9744381850  TIP3      9123            0.0000000000
     52270      9324  TIP3      OH2           -36.1054244941      -19.0427211494      -28.3378310136  TIP3      9124            0.0000000000
     52271      9324  TIP3      H1            -35.8353279162      -18.4201814948      -29.0464175275  TIP3      9124            0.0000000000
     52272      9324  TIP3      H2            -36.4876704327      -18.4115740262      -27.6946842768  TIP3      9124            0.0000000000
     52273      9325  TIP3      OH2           -31.0651973280      -18.5302347357      -24.3041199147  TIP3      9125            0.0000000000
     52274      9325  TIP3      H1            -30.4154761419      -18.0928481652      -24.8953154165  TIP3      9125            0.0000000000
     52275      9325  TIP3      H2            -30.4829391647      -18.6846803519      -23.5419021722  TIP3      9125            0.0000000000
     52276      9326  TIP3      OH2           -24.0392954665      -18.9374506122      -26.9781246756  TIP3      9126            0.0000000000
     52277      9326  TIP3      H1            -24.7094154012      -18.3010785472      -26.6810397467  TIP3      9126            0.0000000000
     52278      9326  TIP3      H2            -23.9494824323      -19.5294678116      -26.1795719347  TIP3      9126            0.0000000000
     52279      9327  TIP3      OH2           -36.4221282755       -2.5372663632      -27.4152392973  TIP3      9127            0.0000000000
     52280      9327  TIP3      H1            -37.3694121411       -2.5866884002      -27.5872773702  TIP3      9127            0.0000000000
     52281      9327  TIP3      H2            -36.3442019059       -1.5618437748      -27.4889229260  TIP3      9127            0.0000000000
     52282      9328  TIP3      OH2           -35.1140400099      -17.1656569252      -30.0032403775  TIP3      9128            0.0000000000
     52283      9328  TIP3      H1            -34.3300806661      -17.5444515541      -30.4458581085  TIP3      9128            0.0000000000
     52284      9328  TIP3      H2            -34.6611977873      -16.7399285910      -29.2488479014  TIP3      9128            0.0000000000
     52285      9329  TIP3      OH2           -29.6363323575      -16.8933796869      -27.8688614192  TIP3      9129            0.0000000000
     52286      9329  TIP3      H1            -29.4877172464      -17.3855894554      -27.0413876931  TIP3      9129            0.0000000000
     52287      9329  TIP3      H2            -29.9205857131      -16.0200636147      -27.5030961980  TIP3      9129            0.0000000000
     52288      9330  TIP3      OH2           -27.6523933558       -1.4610754046      -29.0823186361  TIP3      9130            0.0000000000
     52289      9330  TIP3      H1            -26.6983598127       -1.4856055127      -29.2910066691  TIP3      9130            0.0000000000
     52290      9330  TIP3      H2            -27.9479721324       -1.9967849872      -29.8540638020  TIP3      9130            0.0000000000
     52291      9331  TIP3      OH2           -21.1943275015       -2.4079062155      -26.3615884091  TIP3      9131            0.0000000000
     52292      9331  TIP3      H1            -21.5780924177       -3.1273719240      -26.9139962323  TIP3      9131            0.0000000000
     52293      9331  TIP3      H2            -21.1863746079       -1.6609688602      -26.9979693305  TIP3      9131            0.0000000000
     52294      9332  TIP3      OH2           -35.1843767639       -2.0996263645      -30.5272940275  TIP3      9132            0.0000000000
     52295      9332  TIP3      H1            -35.3263106674       -1.6411681060      -29.6810588989  TIP3      9132            0.0000000000
     52296      9332  TIP3      H2            -34.5185973261       -2.7612072872      -30.2573842842  TIP3      9132            0.0000000000
     52297      9333  TIP3      OH2            -7.3675405460       -9.4458584038      -24.6894266373  TIP3      9133            0.0000000000
     52298      9333  TIP3      H1             -7.5958729189       -8.5168214360      -24.9384222148  TIP3      9133            0.0000000000
     52299      9333  TIP3      H2             -8.2408219195       -9.8555960643      -24.6593120174  TIP3      9133            0.0000000000
     52300      9334  TIP3      OH2           -18.5540015079      -12.7015792394      -25.2872413335  TIP3      9134            0.0000000000
     52301      9334  TIP3      H1            -18.7250467512      -11.7591611559      -25.2654583481  TIP3      9134            0.0000000000
     52302      9334  TIP3      H2            -19.1959530581      -12.9799930132      -24.5787257108  TIP3      9134            0.0000000000
     52303      9335  TIP3      OH2            -7.8401603419       -1.6059879111      -22.2549989030  TIP3      9135            0.0000000000
     52304      9335  TIP3      H1             -7.3348892106       -2.1993880292      -22.8330660681  TIP3      9135            0.0000000000
     52305      9335  TIP3      H2             -7.8476142100       -2.0788621366      -21.4287363313  TIP3      9135            0.0000000000
     52306      9336  TIP3      OH2            -6.3802483146      -15.2279993846      -24.3857539656  TIP3      9136            0.0000000000
     52307      9336  TIP3      H1             -5.6595888037      -15.6534970217      -23.9225970697  TIP3      9136            0.0000000000
     52308      9336  TIP3      H2             -5.8821870926      -14.5259471968      -24.8458821802  TIP3      9136            0.0000000000
     52309      9337  TIP3      OH2           -17.4103643294      -12.9555761769      -22.2868938415  TIP3      9137            0.0000000000
     52310      9337  TIP3      H1            -16.8867784728      -13.4743536487      -21.6721555537  TIP3      9137            0.0000000000
     52311      9337  TIP3      H2            -16.9972282228      -13.2091363908      -23.1318804088  TIP3      9137            0.0000000000
     52312      9338  TIP3      OH2           -12.7208385498      -11.5772686545      -22.7741587402  TIP3      9138            0.0000000000
     52313      9338  TIP3      H1            -11.8392078260      -11.9683971010      -22.7774903478  TIP3      9138            0.0000000000
     52314      9338  TIP3      H2            -13.2042618384      -12.1822814759      -23.3851036457  TIP3      9138            0.0000000000
     52315      9339  TIP3      OH2            -8.0629650901       -7.0492832428      -25.6741146759  TIP3      9139            0.0000000000
     52316      9339  TIP3      H1             -8.3830599065       -7.1405250509      -26.5869117172  TIP3      9139            0.0000000000
     52317      9339  TIP3      H2             -8.3440144450       -6.1247116170      -25.4730223790  TIP3      9139            0.0000000000
     52318      9340  TIP3      OH2           -18.1250241033       -7.2616163211      -27.0648832216  TIP3      9140            0.0000000000
     52319      9340  TIP3      H1            -18.1134463283       -6.7347471761      -27.8953365316  TIP3      9140            0.0000000000
     52320      9340  TIP3      H2            -17.8801668426       -6.5618700706      -26.4149387492  TIP3      9140            0.0000000000
     52321      9341  TIP3      OH2            -6.5535007156       -3.5779771545      -23.7203061187  TIP3      9141            0.0000000000
     52322      9341  TIP3      H1             -6.2038165588       -4.3697884941      -24.1691206838  TIP3      9141            0.0000000000
     52323      9341  TIP3      H2             -5.9512550479       -2.8986637615      -24.0584930286  TIP3      9141            0.0000000000
     52324      9342  TIP3      OH2            -5.1505454499       -6.0866548525      -25.1677984118  TIP3      9142            0.0000000000
     52325      9342  TIP3      H1             -5.4009360619       -6.4544999611      -26.0389507016  TIP3      9142            0.0000000000
     52326      9342  TIP3      H2             -4.6773926938       -6.8527475065      -24.8302061714  TIP3      9142            0.0000000000
     52327      9343  TIP3      OH2            -8.8075652709      -10.3773260290      -27.1439958012  TIP3      9143            0.0000000000
     52328      9343  TIP3      H1             -9.3012258941       -9.5306615552      -27.1475369162  TIP3      9143            0.0000000000
     52329      9343  TIP3      H2             -7.9025780693      -10.1055951606      -27.4139676578  TIP3      9143            0.0000000000
     52330      9344  TIP3      OH2            -8.8888203891      -11.4241480195      -30.1215155254  TIP3      9144            0.0000000000
     52331      9344  TIP3      H1             -8.5710647511      -11.0508745187      -29.2783209114  TIP3      9144            0.0000000000
     52332      9344  TIP3      H2             -8.3772388603      -12.2544209553      -30.1422003810  TIP3      9144            0.0000000000
     52333      9345  TIP3      OH2            -4.9447499465      -10.1351137958      -25.7804531474  TIP3      9145            0.0000000000
     52334      9345  TIP3      H1             -5.7729380422      -10.0550208205      -25.2541437268  TIP3      9145            0.0000000000
     52335      9345  TIP3      H2             -4.3354702772      -10.6100629847      -25.1755906316  TIP3      9145            0.0000000000
     52336      9346  TIP3      OH2           -13.8619025247       -9.3839355088      -24.0601544691  TIP3      9146            0.0000000000
     52337      9346  TIP3      H1            -14.3199933381       -9.9844683616      -24.6728416539  TIP3      9146            0.0000000000
     52338      9346  TIP3      H2            -13.6103986924       -9.9874086036      -23.3330873603  TIP3      9146            0.0000000000
     52339      9347  TIP3      OH2           -12.0676414452       -5.8041164079      -21.2829368920  TIP3      9147            0.0000000000
     52340      9347  TIP3      H1            -12.1829742395       -6.4364807770      -22.0015811735  TIP3      9147            0.0000000000
     52341      9347  TIP3      H2            -11.7789106037       -6.4025347771      -20.5669121562  TIP3      9147            0.0000000000
     52342      9348  TIP3      OH2           -13.7038108603      -10.2109929089      -20.6678886895  TIP3      9148            0.0000000000
     52343      9348  TIP3      H1            -13.4240141654      -10.8615657445      -21.3445283640  TIP3      9148            0.0000000000
     52344      9348  TIP3      H2            -12.8589380579       -9.9722468666      -20.2589516161  TIP3      9148            0.0000000000
     52345      9349  TIP3      OH2            -6.3136813617      -10.5814006265      -28.2023929433  TIP3      9149            0.0000000000
     52346      9349  TIP3      H1             -5.6885925157      -10.6868750350      -27.4562860851  TIP3      9149            0.0000000000
     52347      9349  TIP3      H2             -5.7042963808      -10.1986394787      -28.8789309359  TIP3      9149            0.0000000000
     52348      9350  TIP3      OH2            -8.8576518099       -4.5043078405      -25.1484499709  TIP3      9150            0.0000000000
     52349      9350  TIP3      H1             -8.3731158242       -3.8946221231      -24.5724904139  TIP3      9150            0.0000000000
     52350      9350  TIP3      H2             -9.5427977433       -3.9305799007      -25.5243484099  TIP3      9150            0.0000000000
     52351      9351  TIP3      OH2           -15.4514511740      -10.6770654200      -26.3831685990  TIP3      9151            0.0000000000
     52352      9351  TIP3      H1            -15.4721912123       -9.8520415781      -26.8916128367  TIP3      9151            0.0000000000
     52353      9351  TIP3      H2            -15.2089110846      -11.3354091830      -27.0504212411  TIP3      9151            0.0000000000
     52354      9352  TIP3      OH2            -1.5463930085       -5.0456712890      -29.8542474565  TIP3      9152            0.0000000000
     52355      9352  TIP3      H1             -1.1434095659       -4.1578404080      -29.7831283860  TIP3      9152            0.0000000000
     52356      9352  TIP3      H2             -0.7456994458       -5.6144214949      -29.8056597864  TIP3      9152            0.0000000000
     52357      9353  TIP3      OH2            -9.4653604159       -1.3486328857      -26.3672646877  TIP3      9153            0.0000000000
     52358      9353  TIP3      H1             -9.2621800189       -1.2800186547      -27.3158808505  TIP3      9153            0.0000000000
     52359      9353  TIP3      H2             -9.3524488554       -0.4158287195      -26.0736447790  TIP3      9153            0.0000000000
     52360      9354  TIP3      OH2           -15.5373393463       -2.4304799387      -24.7411747237  TIP3      9154            0.0000000000
     52361      9354  TIP3      H1            -15.3506650724       -2.7001333194      -23.8182045843  TIP3      9154            0.0000000000
     52362      9354  TIP3      H2            -16.4555917794       -2.7110265097      -24.8674704543  TIP3      9154            0.0000000000
     52363      9355  TIP3      OH2            -4.7365034419       -9.4505652812      -30.0495270447  TIP3      9155            0.0000000000
     52364      9355  TIP3      H1             -4.9505256077       -9.4376571208      -31.0003827502  TIP3      9155            0.0000000000
     52365      9355  TIP3      H2             -3.7618139732       -9.4447756522      -30.0862695192  TIP3      9155            0.0000000000
     52366      9356  TIP3      OH2            -9.4263189455      -15.9671856976      -30.2726557864  TIP3      9156            0.0000000000
     52367      9356  TIP3      H1             -9.4625852027      -16.1816481253      -29.3265739128  TIP3      9156            0.0000000000
     52368      9356  TIP3      H2            -10.1098358268      -16.6109958030      -30.5747856755  TIP3      9156            0.0000000000
     52369      9357  TIP3      OH2           -13.7836432996      -13.3770719992      -24.4055309567  TIP3      9157            0.0000000000
     52370      9357  TIP3      H1            -14.6048240394      -13.9002704786      -24.4333162749  TIP3      9157            0.0000000000
     52371      9357  TIP3      H2            -13.3359045192      -13.6315654425      -25.2315113485  TIP3      9157            0.0000000000
     52372      9358  TIP3      OH2            -8.0797521055      -12.4435085583      -25.6119204361  TIP3      9158            0.0000000000
     52373      9358  TIP3      H1             -8.3770819538      -11.6072984830      -26.0426670935  TIP3      9158            0.0000000000
     52374      9358  TIP3      H2             -7.5095243344      -12.7430435948      -26.3595211105  TIP3      9158            0.0000000000
     52375      9359  TIP3      OH2            -7.4192176778      -12.8732335957      -22.8690015308  TIP3      9159            0.0000000000
     52376      9359  TIP3      H1             -7.7431256756      -12.3564334816      -23.6268208159  TIP3      9159            0.0000000000
     52377      9359  TIP3      H2             -7.1848294485      -13.7052055084      -23.3064074258  TIP3      9159            0.0000000000
     52378      9360  TIP3      OH2           -12.9713520209      -15.7360267622      -30.9921393897  TIP3      9160            0.0000000000
     52379      9360  TIP3      H1            -13.4189575643      -16.0863101082      -30.1902709835  TIP3      9160            0.0000000000
     52380      9360  TIP3      H2            -13.4669349467      -14.9258268360      -31.1754713869  TIP3      9160            0.0000000000
     52381      9361  TIP3      OH2           -19.0479363901      -15.8947717699      -23.7805651266  TIP3      9161            0.0000000000
     52382      9361  TIP3      H1            -19.3431762370      -15.0168630109      -23.4770459584  TIP3      9161            0.0000000000
     52383      9361  TIP3      H2            -18.1729824635      -15.9290113889      -23.3697624882  TIP3      9161            0.0000000000
     52384      9362  TIP3      OH2           -10.8189874040      -15.2577638813      -23.3560477615  TIP3      9162            0.0000000000
     52385      9362  TIP3      H1            -11.5111416056      -15.8161198845      -23.7483564938  TIP3      9162            0.0000000000
     52386      9362  TIP3      H2            -10.2205849970      -15.9050503467      -22.9323928085  TIP3      9162            0.0000000000
     52387      9363  TIP3      OH2           -16.5885930910      -14.3154920267      -24.5019938904  TIP3      9163            0.0000000000
     52388      9363  TIP3      H1            -17.1602957144      -13.7646848832      -25.0903403564  TIP3      9163            0.0000000000
     52389      9363  TIP3      H2            -16.3463533496      -15.0920153466      -25.0492125386  TIP3      9163            0.0000000000
     52390      9364  TIP3      OH2           -12.9531210186      -13.8458903483      -27.0374536650  TIP3      9164            0.0000000000
     52391      9364  TIP3      H1            -12.0215425014      -13.8661334390      -27.2917884470  TIP3      9164            0.0000000000
     52392      9364  TIP3      H2            -13.3182191116      -13.1533314657      -27.6218933112  TIP3      9164            0.0000000000
     52393      9365  TIP3      OH2           -13.8782228853      -12.5313168216      -29.5237751784  TIP3      9165            0.0000000000
     52394      9365  TIP3      H1            -14.2546675789      -12.9359244712      -30.3259026508  TIP3      9165            0.0000000000
     52395      9365  TIP3      H2            -13.0233518618      -12.2386974586      -29.9093334610  TIP3      9165            0.0000000000
     52396      9366  TIP3      OH2           -15.3051167863      -16.5908632193      -25.3443542667  TIP3      9166            0.0000000000
     52397      9366  TIP3      H1            -15.8047746572      -17.2697263412      -24.8352267023  TIP3      9166            0.0000000000
     52398      9366  TIP3      H2            -14.6434268152      -17.1350826481      -25.7842532411  TIP3      9166            0.0000000000
     52399      9367  TIP3      OH2           -10.4382671718       -8.1958334730      -27.1991795052  TIP3      9167            0.0000000000
     52400      9367  TIP3      H1            -11.1823960861       -8.6256198328      -27.6642632054  TIP3      9167            0.0000000000
     52401      9367  TIP3      H2            -10.8970652353       -7.9151053371      -26.3702152652  TIP3      9167            0.0000000000
     52402      9368  TIP3      OH2            -6.8223434501      -15.4831368351      -29.4707316729  TIP3      9168            0.0000000000
     52403      9368  TIP3      H1             -7.7121796832      -15.0821126884      -29.4827030136  TIP3      9168            0.0000000000
     52404      9368  TIP3      H2             -6.2932517919      -14.7150233791      -29.1792922119  TIP3      9168            0.0000000000
     52405      9369  TIP3      OH2            -6.8389623839      -13.2769598771      -27.8044012331  TIP3      9169            0.0000000000
     52406      9369  TIP3      H1             -5.9648177270      -13.6034807172      -27.5393332419  TIP3      9169            0.0000000000
     52407      9369  TIP3      H2             -6.5338024176      -12.5919936705      -28.4347707247  TIP3      9169            0.0000000000
     52408      9370  TIP3      OH2            -8.6314500084       -6.7130643925      -28.7124907545  TIP3      9170            0.0000000000
     52409      9370  TIP3      H1             -9.0107895408       -5.8606644700      -28.4037259222  TIP3      9170            0.0000000000
     52410      9370  TIP3      H2             -9.2534477114       -7.3335961739      -28.2819645072  TIP3      9170            0.0000000000
     52411      9371  TIP3      OH2            -1.1463427324      -13.5903725031      -27.8232982563  TIP3      9171            0.0000000000
     52412      9371  TIP3      H1             -1.9169879855      -13.5928350234      -28.4136073470  TIP3      9171            0.0000000000
     52413      9371  TIP3      H2             -0.9893778790      -12.6455830155      -27.6957412493  TIP3      9171            0.0000000000
     52414      9372  TIP3      OH2            -3.1006453820       -4.3171175747      -27.7508877894  TIP3      9172            0.0000000000
     52415      9372  TIP3      H1             -3.5237791330       -5.0222417812      -27.2409334218  TIP3      9172            0.0000000000
     52416      9372  TIP3      H2             -2.5444083754       -4.8052230711      -28.3868781435  TIP3      9172            0.0000000000
     52417      9373  TIP3      OH2            -5.6555690346      -10.1070951465      -20.6792944248  TIP3      9173            0.0000000000
     52418      9373  TIP3      H1             -6.2024776491      -10.5700721921      -20.0202308862  TIP3      9173            0.0000000000
     52419      9373  TIP3      H2             -5.4986447654      -10.8263645725      -21.3131869189  TIP3      9173            0.0000000000
     52420      9374  TIP3      OH2           -13.2511036434       -5.3602768472      -24.1195573299  TIP3      9174            0.0000000000
     52421      9374  TIP3      H1            -12.6840466796       -4.5720929116      -24.1501334949  TIP3      9174            0.0000000000
     52422      9374  TIP3      H2            -13.8350391237       -5.2194581095      -24.8779228734  TIP3      9174            0.0000000000
     52423      9375  TIP3      OH2           -17.1745600492      -10.3001763644      -29.5610442925  TIP3      9175            0.0000000000
     52424      9375  TIP3      H1            -16.7549404229       -9.6091074016      -29.0050216071  TIP3      9175            0.0000000000
     52425      9375  TIP3      H2            -18.1262188011      -10.2503193921      -29.3254001129  TIP3      9175            0.0000000000
     52426      9376  TIP3      OH2           -11.8415955403       -7.6229849267      -24.9999831566  TIP3      9176            0.0000000000
     52427      9376  TIP3      H1            -12.3003341694       -6.8420036115      -24.6359872394  TIP3      9176            0.0000000000
     52428      9376  TIP3      H2            -12.2926673364       -8.3369401256      -24.5128129943  TIP3      9176            0.0000000000
     52429      9377  TIP3      OH2           -12.9025136361       -2.8321438161      -25.4779126131  TIP3      9177            0.0000000000
     52430      9377  TIP3      H1            -13.8559789467       -2.6675273836      -25.3647345629  TIP3      9177            0.0000000000
     52431      9377  TIP3      H2            -12.5642228459       -2.0468652760      -24.9956187710  TIP3      9177            0.0000000000
     52432      9378  TIP3      OH2            -5.2375427449       -6.4033869249      -29.5075119587  TIP3      9178            0.0000000000
     52433      9378  TIP3      H1             -5.0992281600       -6.9064281519      -28.6737896230  TIP3      9178            0.0000000000
     52434      9378  TIP3      H2             -6.1479587733       -6.6868139467      -29.6856885842  TIP3      9178            0.0000000000
     52435      9379  TIP3      OH2            -0.9709806982       -2.2011592817      -29.4909533126  TIP3      9179            0.0000000000
     52436      9379  TIP3      H1             -0.2091661294       -1.6045287264      -29.5337272592  TIP3      9179            0.0000000000
     52437      9379  TIP3      H2             -1.6675186261       -1.6171446104      -29.8061190686  TIP3      9179            0.0000000000
     52438      9380  TIP3      OH2            -4.5222878498       -7.9095695228      -27.2904412574  TIP3      9180            0.0000000000
     52439      9380  TIP3      H1             -4.7037683180       -8.7869925577      -26.8809362725  TIP3      9180            0.0000000000
     52440      9380  TIP3      H2             -3.5431666652       -7.9408881602      -27.3366165272  TIP3      9180            0.0000000000
     52441      9381  TIP3      OH2           -11.3622569672       -4.9824273912      -31.0786003149  TIP3      9181            0.0000000000
     52442      9381  TIP3      H1            -11.4219997620       -5.5149672148      -31.8864784350  TIP3      9181            0.0000000000
     52443      9381  TIP3      H2            -11.8941772345       -5.5406796731      -30.4786827283  TIP3      9181            0.0000000000
     52444      9382  TIP3      OH2           -12.5681571835       -5.9478302942      -28.6646520771  TIP3      9182            0.0000000000
     52445      9382  TIP3      H1            -11.8930776309       -6.2942720293      -28.0551450688  TIP3      9182            0.0000000000
     52446      9382  TIP3      H2            -12.4412176306       -4.9833833271      -28.4842788127  TIP3      9182            0.0000000000
     52447      9383  TIP3      OH2           -15.8683895995       -8.4663261259      -28.0707978539  TIP3      9183            0.0000000000
     52448      9383  TIP3      H1            -16.6689493579       -8.1523486419      -27.5916664221  TIP3      9183            0.0000000000
     52449      9383  TIP3      H2            -15.5281412203       -7.6392660776      -28.4739922066  TIP3      9183            0.0000000000
     52450      9384  TIP3      OH2            -7.4795813900      -16.3160585122      -26.8735514702  TIP3      9184            0.0000000000
     52451      9384  TIP3      H1             -7.0024504212      -16.0954597776      -27.6995697475  TIP3      9184            0.0000000000
     52452      9384  TIP3      H2             -7.0403753544      -15.7681104802      -26.1979286636  TIP3      9184            0.0000000000
     52453      9385  TIP3      OH2            -9.7369384833       -4.3172452095      -28.0336469558  TIP3      9185            0.0000000000
     52454      9385  TIP3      H1            -10.5606957181       -3.8111323415      -27.8780473669  TIP3      9185            0.0000000000
     52455      9385  TIP3      H2             -9.1083426041       -3.6081686329      -28.2283276175  TIP3      9185            0.0000000000
     52456      9386  TIP3      OH2           -10.0204310926      -14.6775358331      -25.9447560785  TIP3      9186            0.0000000000
     52457      9386  TIP3      H1             -9.3880175056      -13.9319580036      -25.9560432207  TIP3      9186            0.0000000000
     52458      9386  TIP3      H2            -10.3117650093      -14.6893921287      -25.0111362594  TIP3      9186            0.0000000000
     52459      9387  TIP3      OH2            -9.1456526799      -17.6571336982      -25.2996193080  TIP3      9187            0.0000000000
     52460      9387  TIP3      H1             -9.6007499636      -16.8103524509      -25.3881305351  TIP3      9187            0.0000000000
     52461      9387  TIP3      H2             -8.3310468630      -17.3974631309      -25.7887127104  TIP3      9187            0.0000000000
     52462      9388  TIP3      OH2           -12.2984510673       -3.3756661937      -28.0481741569  TIP3      9188            0.0000000000
     52463      9388  TIP3      H1            -12.2696772998       -2.5298379624      -28.5607962022  TIP3      9188            0.0000000000
     52464      9388  TIP3      H2            -12.4800146953       -3.0179881921      -27.1436178326  TIP3      9188            0.0000000000
     52465      9389  TIP3      OH2           -13.6227897445      -16.3927812199      -28.3760099672  TIP3      9189            0.0000000000
     52466      9389  TIP3      H1            -13.6293594883      -15.5636491602      -27.8553759362  TIP3      9189            0.0000000000
     52467      9389  TIP3      H2            -12.6990647999      -16.6968346101      -28.2457439319  TIP3      9189            0.0000000000
     52468      9390  TIP3      OH2            -4.8825025397      -12.3059937142      -22.2153990171  TIP3      9190            0.0000000000
     52469      9390  TIP3      H1             -5.8689543333      -12.2945766720      -22.2341149498  TIP3      9190            0.0000000000
     52470      9390  TIP3      H2             -4.7666400099      -12.7698633733      -21.3757743333  TIP3      9190            0.0000000000
     52471      9391  TIP3      OH2           -15.4508011014       -6.0296896435      -29.5421321981  TIP3      9191            0.0000000000
     52472      9391  TIP3      H1            -14.6422597038       -5.6891736039      -29.1036322014  TIP3      9191            0.0000000000
     52473      9391  TIP3      H2            -15.0608342151       -6.4478556175      -30.3328203829  TIP3      9191            0.0000000000
     52474      9392  TIP3      OH2           -17.4019695181      -13.2565569792      -30.3572043898  TIP3      9192            0.0000000000
     52475      9392  TIP3      H1            -16.8593726713      -12.6693551728      -29.8063473267  TIP3      9192            0.0000000000
     52476      9392  TIP3      H2            -17.8809433573      -12.5933903516      -30.8813918921  TIP3      9192            0.0000000000
     52477      9393  TIP3      OH2           -17.6120588051       -4.9411838412      -25.6917372199  TIP3      9193            0.0000000000
     52478      9393  TIP3      H1            -18.3619692845       -4.3986207018      -25.4231463960  TIP3      9193            0.0000000000
     52479      9393  TIP3      H2            -17.1626744685       -4.2803075858      -26.2535196027  TIP3      9193            0.0000000000
     52480      9394  TIP3      OH2            -9.1069802797       -3.2067793376      -31.0700926077  TIP3      9194            0.0000000000
     52481      9394  TIP3      H1             -9.7535117149       -3.9203441694      -30.8695803253  TIP3      9194            0.0000000000
     52482      9394  TIP3      H2             -8.5017904703       -3.6681322440      -31.6816191022  TIP3      9194            0.0000000000
     52483      9395  TIP3      OH2            -4.5807689990       -3.8212290315      -31.0552784105  TIP3      9195            0.0000000000
     52484      9395  TIP3      H1             -4.5230582799       -4.4666613912      -30.3314582243  TIP3      9195            0.0000000000
     52485      9395  TIP3      H2             -3.8076920111       -4.0685079223      -31.6065842082  TIP3      9195            0.0000000000
     52486      9396  TIP3      OH2           -13.9143925394       -7.8618472216      -31.2257839668  TIP3      9196            0.0000000000
     52487      9396  TIP3      H1            -13.5773393539       -7.9832415222      -30.3236991717  TIP3      9196            0.0000000000
     52488      9396  TIP3      H2            -13.1304413469       -8.1459140283      -31.7538135474  TIP3      9196            0.0000000000
     52489      9397  TIP3      OH2            -8.3494699071       -6.5931396881      -31.6455354888  TIP3      9197            0.0000000000
     52490      9397  TIP3      H1             -8.5941231262       -6.7447769813      -30.7169901978  TIP3      9197            0.0000000000
     52491      9397  TIP3      H2             -8.2265531710       -7.5334828012      -31.9026230996  TIP3      9197            0.0000000000
     52492      9398  TIP3      OH2           -12.4853190408       -9.6796769240      -28.5561289701  TIP3      9198            0.0000000000
     52493      9398  TIP3      H1            -13.2310755202      -10.1133909614      -28.1262688515  TIP3      9198            0.0000000000
     52494      9398  TIP3      H2            -12.2132045091      -10.3488981166      -29.2053951865  TIP3      9198            0.0000000000
     52495      9399  TIP3      OH2           -11.6162414929      -11.4839733595      -30.7746769228  TIP3      9199            0.0000000000
     52496      9399  TIP3      H1            -11.5674612485      -11.0583390780      -31.6457498647  TIP3      9199            0.0000000000
     52497      9399  TIP3      H2            -10.6551004733      -11.5019950344      -30.5523767624  TIP3      9199            0.0000000000
     52498      9400  TIP3      OH2            -2.1476135943       -9.2463241378      -31.0442702451  TIP3      9200            0.0000000000
     52499      9400  TIP3      H1             -2.3622442779       -9.6510865223      -31.9172278507  TIP3      9200            0.0000000000
     52500      9400  TIP3      H2             -2.4049505228       -8.3034930215      -31.2039480926  TIP3      9200            0.0000000000
     52501      9401  TIP3      OH2           -11.5839290235       -0.9604895206      -29.0049809198  TIP3      9201            0.0000000000
     52502      9401  TIP3      H1            -10.6349581193       -0.8418214565      -28.8584897777  TIP3      9201            0.0000000000
     52503      9401  TIP3      H2            -11.7405187917       -0.3617374285      -29.7599993406  TIP3      9201            0.0000000000
     52504      9402  TIP3      OH2           -18.1352374919       -6.3299756077      -29.7078833939  TIP3      9202            0.0000000000
     52505      9402  TIP3      H1            -17.1579199899       -6.2658755708      -29.7304392117  TIP3      9202            0.0000000000
     52506      9402  TIP3      H2            -18.3230733598       -6.8557173803      -30.5193571310  TIP3      9202            0.0000000000
     52507      9403  TIP3      OH2           -19.9472078931       -0.8304351882      -24.7168155053  TIP3      9203            0.0000000000
     52508      9403  TIP3      H1            -20.3316418700       -1.5671700613      -25.2361573403  TIP3      9203            0.0000000000
     52509      9403  TIP3      H2            -19.3799940617       -1.2814252265      -24.0737205622  TIP3      9203            0.0000000000
     52510      9404  TIP3      OH2           -18.3884286905       -2.8171818029      -23.0429680021  TIP3      9204            0.0000000000
     52511      9404  TIP3      H1            -19.1027797120       -3.4660140360      -22.9731210578  TIP3      9204            0.0000000000
     52512      9404  TIP3      H2            -18.1801419003       -2.5818774081      -22.1191455126  TIP3      9204            0.0000000000
     52513      9405  TIP3      OH2            -1.8396252630       -8.2285812970      -27.0575783837  TIP3      9205            0.0000000000
     52514      9405  TIP3      H1             -0.9116295502       -7.9040023164      -27.0352416893  TIP3      9205            0.0000000000
     52515      9405  TIP3      H2             -1.8772816136       -8.8026382198      -26.2591046144  TIP3      9205            0.0000000000
     52516      9406  TIP3      OH2            -1.4097726975      -10.1085744104      -24.9155662582  TIP3      9206            0.0000000000
     52517      9406  TIP3      H1             -2.1322714737      -10.7114885086      -24.6227431220  TIP3      9206            0.0000000000
     52518      9406  TIP3      H2             -0.6360184893      -10.4232965036      -24.4109020182  TIP3      9206            0.0000000000
     52519      9407  TIP3      OH2            -0.7267098910      -10.3107351072      -28.8488869865  TIP3      9207            0.0000000000
     52520      9407  TIP3      H1             -1.2549871092       -9.9772791428      -29.6013876415  TIP3      9207            0.0000000000
     52521      9407  TIP3      H2             -1.1861273022       -9.8984827109      -28.0969325154  TIP3      9207            0.0000000000
     52522      9408  TIP3      OH2            -1.7322132361      -13.1701069172      -31.0424761314  TIP3      9208            0.0000000000
     52523      9408  TIP3      H1             -1.9509220675      -12.3115011007      -30.6710105083  TIP3      9208            0.0000000000
     52524      9408  TIP3      H2             -2.5407485093      -13.6093465190      -30.7158520495  TIP3      9208            0.0000000000
     52525      9409  TIP3      OH2            -3.3601610169      -11.8180779934      -24.3418653814  TIP3      9209            0.0000000000
     52526      9409  TIP3      H1             -3.5585096592      -12.6556260731      -24.8091965700  TIP3      9209            0.0000000000
     52527      9409  TIP3      H2             -3.8205852202      -11.9991117394      -23.4922662999  TIP3      9209            0.0000000000
     52528      9410  TIP3      OH2            -3.2881399515      -16.2382371662      -31.1571476127  TIP3      9210            0.0000000000
     52529      9410  TIP3      H1             -3.4487486584      -15.6745523662      -30.3655344224  TIP3      9210            0.0000000000
     52530      9410  TIP3      H2             -4.1754519606      -16.2289604954      -31.5469471391  TIP3      9210            0.0000000000
     52531      9411  TIP3      OH2            -4.0302006113      -14.2552128851      -25.6690885717  TIP3      9211            0.0000000000
     52532      9411  TIP3      H1             -3.6505627100      -15.1531066774      -25.6313392137  TIP3      9211            0.0000000000
     52533      9411  TIP3      H2             -3.6457151698      -13.9805950689      -26.5264528207  TIP3      9211            0.0000000000
     52534      9412  TIP3      OH2            -2.9575097015      -17.0446095564      -25.6976677734  TIP3      9212            0.0000000000
     52535      9412  TIP3      H1             -2.7688665900      -17.7426983068      -25.0625402208  TIP3      9212            0.0000000000
     52536      9412  TIP3      H2             -3.6011299013      -17.5005124230      -26.2849837923  TIP3      9212            0.0000000000
     52537      9413  TIP3      OH2            -0.9379630106      -16.7973886899      -29.6059285454  TIP3      9213            0.0000000000
     52538      9413  TIP3      H1             -1.0396572953      -17.5911774778      -30.1536682379  TIP3      9213            0.0000000000
     52539      9413  TIP3      H2             -1.5365247601      -16.2008793150      -30.0846614030  TIP3      9213            0.0000000000
     52540      9414  TIP3      OH2           -16.8496985862       -2.2261335427      -20.6790336429  TIP3      9214            0.0000000000
     52541      9414  TIP3      H1            -16.5614795685       -2.8766598597      -20.0140699677  TIP3      9214            0.0000000000
     52542      9414  TIP3      H2            -16.2440223214       -2.4607498545      -21.4249654027  TIP3      9214            0.0000000000
     52543      9415  TIP3      OH2           -14.9626253345       -3.3009647641      -22.1974672583  TIP3      9215            0.0000000000
     52544      9415  TIP3      H1            -14.5714407673       -4.1678690258      -22.3958249986  TIP3      9215            0.0000000000
     52545      9415  TIP3      H2            -14.1451905675       -2.8524493841      -21.8733692433  TIP3      9215            0.0000000000
     52546      9416  TIP3      OH2           -12.4954599587       -2.8943470950      -21.3263432506  TIP3      9216            0.0000000000
     52547      9416  TIP3      H1            -12.3417650997       -3.8580488597      -21.2063760324  TIP3      9216            0.0000000000
     52548      9416  TIP3      H2            -12.4398361586       -2.5878272151      -20.4075723897  TIP3      9216            0.0000000000
     52549      9417  TIP3      OH2            -9.3416334400      -17.0893612014      -21.9630633791  TIP3      9217            0.0000000000
     52550      9417  TIP3      H1             -9.1669047722      -17.9181216940      -21.4884710672  TIP3      9217            0.0000000000
     52551      9417  TIP3      H2             -8.5592822271      -17.0238572521      -22.5341157503  TIP3      9217            0.0000000000
     52552      9418  TIP3      OH2           -16.4809465319      -18.7531639621      -24.3660239652  TIP3      9218            0.0000000000
     52553      9418  TIP3      H1            -17.3563942036      -18.9997047761      -24.7183526159  TIP3      9218            0.0000000000
     52554      9418  TIP3      H2            -16.1059161199      -19.6349772541      -24.2350276533  TIP3      9218            0.0000000000
     52555      9419  TIP3      OH2           -17.6600377183      -19.2412117101      -28.5614018244  TIP3      9219            0.0000000000
     52556      9419  TIP3      H1            -17.3739014824      -18.6394330571      -29.2661205967  TIP3      9219            0.0000000000
     52557      9419  TIP3      H2            -18.2943900873      -18.7075255755      -28.0660806003  TIP3      9219            0.0000000000
     52558      9420  TIP3      OH2           -12.1617275154      -19.1054934359      -24.2728168103  TIP3      9220            0.0000000000
     52559      9420  TIP3      H1            -11.3242310622      -19.4860662176      -24.5732096223  TIP3      9220            0.0000000000
     52560      9420  TIP3      H2            -12.0866033719      -19.1615142884      -23.3157192061  TIP3      9220            0.0000000000
     52561      9421  TIP3      OH2            -6.6021820729      -18.8144894225      -22.7041546852  TIP3      9221            0.0000000000
     52562      9421  TIP3      H1             -6.4429152087      -18.2574061841      -23.4696856197  TIP3      9221            0.0000000000
     52563      9421  TIP3      H2             -6.5501524084      -19.7104156663      -23.0630474469  TIP3      9221            0.0000000000
     52564      9422  TIP3      OH2            -4.8778308117      -18.7996267496      -26.7403301276  TIP3      9222            0.0000000000
     52565      9422  TIP3      H1             -5.2648477256      -18.5096717084      -27.5717668570  TIP3      9222            0.0000000000
     52566      9422  TIP3      H2             -5.4045720580      -19.5972276606      -26.4958239266  TIP3      9222            0.0000000000
     52567      9423  TIP3      OH2           -17.7206540694       -2.8019889368      -27.4192542137  TIP3      9223            0.0000000000
     52568      9423  TIP3      H1            -18.6691940788       -2.7571012286      -27.6117604795  TIP3      9223            0.0000000000
     52569      9423  TIP3      H2            -17.4278119662       -2.0211344315      -27.9203335902  TIP3      9223            0.0000000000
     52570      9424  TIP3      OH2           -15.8538906001      -16.6235059147      -29.8637420906  TIP3      9224            0.0000000000
     52571      9424  TIP3      H1            -15.5805712908      -17.4113759341      -30.3522253351  TIP3      9224            0.0000000000
     52572      9424  TIP3      H2            -15.1395113879      -16.5619670876      -29.1867716297  TIP3      9224            0.0000000000
     52573      9425  TIP3      OH2           -10.7593398210      -16.6153148207      -27.7933292379  TIP3      9225            0.0000000000
     52574      9425  TIP3      H1            -10.3636552759      -17.2760538560      -27.2212091278  TIP3      9225            0.0000000000
     52575      9425  TIP3      H2            -10.6542540688      -15.8114654540      -27.2331758964  TIP3      9225            0.0000000000
     52576      9426  TIP3      OH2            -8.7696309222       -1.5531442424      -28.9723533772  TIP3      9226            0.0000000000
     52577      9426  TIP3      H1             -8.1596256814       -1.0988489303      -29.5643606459  TIP3      9226            0.0000000000
     52578      9426  TIP3      H2             -9.1414687332       -2.1490358961      -29.6617557249  TIP3      9226            0.0000000000
     52579      9427  TIP3      OH2           -16.7516175221       -2.1117644265      -30.6279407341  TIP3      9227            0.0000000000
     52580      9427  TIP3      H1            -16.9013099632       -1.6430817349      -29.7829227420  TIP3      9227            0.0000000000
     52581      9427  TIP3      H2            -15.9125225555       -2.5636715991      -30.4456264069  TIP3      9227            0.0000000000
     52582      9428  TIP3      OH2            11.6955632189       -9.5218631580      -24.3321340059  TIP3      9228            0.0000000000
     52583      9428  TIP3      H1             11.4380071745       -8.5875511349      -24.2019549417  TIP3      9228            0.0000000000
     52584      9428  TIP3      H2             11.1061817864       -9.7333158449      -25.0918867530  TIP3      9228            0.0000000000
     52585      9429  TIP3      OH2            13.7406560171       -6.7472882133      -22.4117048474  TIP3      9229            0.0000000000
     52586      9429  TIP3      H1             13.4670232654       -7.4887582384      -21.8722964414  TIP3      9229            0.0000000000
     52587      9429  TIP3      H2             14.4448224597       -6.4118735793      -21.7976381848  TIP3      9229            0.0000000000
     52588      9430  TIP3      OH2             4.2713684369       -6.1968545591      -20.7796997770  TIP3      9230            0.0000000000
     52589      9430  TIP3      H1              3.4212654866       -6.5334458475      -21.0696277867  TIP3      9230            0.0000000000
     52590      9430  TIP3      H2              4.8938717010       -6.5705534147      -21.4197520915  TIP3      9230            0.0000000000
     52591      9431  TIP3      OH2             0.9360982544      -10.6420298069      -23.0258695298  TIP3      9231            0.0000000000
     52592      9431  TIP3      H1              1.7967367571      -11.0672403057      -22.8923970124  TIP3      9231            0.0000000000
     52593      9431  TIP3      H2              1.2026153627       -9.7355714007      -23.2403531710  TIP3      9231            0.0000000000
     52594      9432  TIP3      OH2            10.9900627643       -2.4027921550      -22.2667763437  TIP3      9232            0.0000000000
     52595      9432  TIP3      H1             11.7104980074       -2.7542714987      -22.8331204657  TIP3      9232            0.0000000000
     52596      9432  TIP3      H2             11.1841831723       -2.8905857000      -21.4443289286  TIP3      9232            0.0000000000
     52597      9433  TIP3      OH2            12.6239340947      -14.9138170851      -24.6890434647  TIP3      9233            0.0000000000
     52598      9433  TIP3      H1             13.0965439470      -15.3843781125      -23.9618986931  TIP3      9233            0.0000000000
     52599      9433  TIP3      H2             13.3724157205      -14.5532774094      -25.1995846898  TIP3      9233            0.0000000000
     52600      9434  TIP3      OH2             5.9695522289      -11.2339548736      -22.8768839206  TIP3      9234            0.0000000000
     52601      9434  TIP3      H1              6.7495530642      -11.7864931672      -22.9318952443  TIP3      9234            0.0000000000
     52602      9434  TIP3      H2              5.2977967666      -11.8321737473      -23.2955200642  TIP3      9234            0.0000000000
     52603      9435  TIP3      OH2            10.8158608836       -7.0227938532      -25.3033365753  TIP3      9235            0.0000000000
     52604      9435  TIP3      H1             10.2228316921       -7.0438962093      -26.0640935703  TIP3      9235            0.0000000000
     52605      9435  TIP3      H2             10.7224086226       -6.0709845309      -25.0657557989  TIP3      9235            0.0000000000
     52606      9436  TIP3      OH2            14.0749430660      -15.6948339449      -22.5486611060  TIP3      9236            0.0000000000
     52607      9436  TIP3      H1             13.8300192188      -16.5483062772      -22.1566468539  TIP3      9236            0.0000000000
     52608      9436  TIP3      H2             14.5871095715      -15.3004593936      -21.8159127469  TIP3      9236            0.0000000000
     52609      9437  TIP3      OH2             0.8081589058       -7.3756838466      -27.2375795171  TIP3      9237            0.0000000000
     52610      9437  TIP3      H1              0.7253847536       -6.8303624146      -28.0505103404  TIP3      9237            0.0000000000
     52611      9437  TIP3      H2              0.9868512111       -6.6776448963      -26.5665574940  TIP3      9237            0.0000000000
     52612      9438  TIP3      OH2            12.6374122427       -3.2741547143      -24.1348733553  TIP3      9238            0.0000000000
     52613      9438  TIP3      H1             13.0080277019       -4.1774080955      -24.2864839391  TIP3      9238            0.0000000000
     52614      9438  TIP3      H2             13.3988551661       -2.7081690135      -24.3919891413  TIP3      9238            0.0000000000
     52615      9439  TIP3      OH2            13.6085614743       -5.7382293813      -25.0493782123  TIP3      9239            0.0000000000
     52616      9439  TIP3      H1             13.6137932481       -6.5537566923      -25.5641533141  TIP3      9239            0.0000000000
     52617      9439  TIP3      H2             13.5495222144       -6.1455172390      -24.1519211252  TIP3      9239            0.0000000000
     52618      9440  TIP3      OH2            10.2445020475       -9.8667958732      -26.5096166179  TIP3      9240            0.0000000000
     52619      9440  TIP3      H1              9.7127265323       -9.0589501434      -26.6921141847  TIP3      9240            0.0000000000
     52620      9440  TIP3      H2             10.8539662248       -9.9245144229      -27.2710636376  TIP3      9240            0.0000000000
     52621      9441  TIP3      OH2            10.0998965779      -11.4947519194      -30.0486440579  TIP3      9241            0.0000000000
     52622      9441  TIP3      H1             10.5835487824      -10.9816609335      -29.3780482200  TIP3      9241            0.0000000000
     52623      9441  TIP3      H2             10.6840778102      -12.2721746832      -30.1518051702  TIP3      9241            0.0000000000
     52624      9442  TIP3      OH2            13.7220057048      -10.4499673240      -25.9121902378  TIP3      9242            0.0000000000
     52625      9442  TIP3      H1             13.0502995513      -10.1040433069      -25.2762388812  TIP3      9242            0.0000000000
     52626      9442  TIP3      H2             14.3628386690      -10.8663006918      -25.2894789035  TIP3      9242            0.0000000000
     52627      9443  TIP3      OH2             4.2904815472       -9.5247800373      -24.2247271629  TIP3      9243            0.0000000000
     52628      9443  TIP3      H1              4.8523102730       -9.7140458189      -24.9889314384  TIP3      9243            0.0000000000
     52629      9443  TIP3      H2              4.7883241216       -9.9887715476      -23.5228483698  TIP3      9243            0.0000000000
     52630      9444  TIP3      OH2            12.1821442262      -10.6006599671      -28.2422780997  TIP3      9244            0.0000000000
     52631      9444  TIP3      H1             12.7714184442      -10.4974906117      -27.4616094227  TIP3      9244            0.0000000000
     52632      9444  TIP3      H2             12.7489822192      -10.2219598448      -28.9601366202  TIP3      9244            0.0000000000
     52633      9445  TIP3      OH2            10.1721612288       -4.4191052724      -25.1204345309  TIP3      9245            0.0000000000
     52634      9445  TIP3      H1             10.7062938745       -4.0413040312      -24.4105237661  TIP3      9245            0.0000000000
     52635      9445  TIP3      H2              9.5135356731       -3.7341033276      -25.2396365423  TIP3      9245            0.0000000000
     52636      9446  TIP3      OH2             4.2773356826      -10.4619937803      -26.9563310191  TIP3      9246            0.0000000000
     52637      9446  TIP3      H1              3.7696756232       -9.6718903630      -27.2632251187  TIP3      9246            0.0000000000
     52638      9446  TIP3      H2              3.6992790136      -10.8596436503      -26.2939718112  TIP3      9246            0.0000000000
     52639      9447  TIP3      OH2            17.1788686228       -4.6534720526      -30.2598218875  TIP3      9247            0.0000000000
     52640      9447  TIP3      H1             17.5280702276       -3.7829655896      -29.9850536010  TIP3      9247            0.0000000000
     52641      9447  TIP3      H2             17.9437252780       -5.1978947948      -29.9921072614  TIP3      9247            0.0000000000
     52642      9448  TIP3      OH2            10.0559370947       -1.1378179613      -26.4456209397  TIP3      9248            0.0000000000
     52643      9448  TIP3      H1              9.8127553124       -1.1482362143      -27.3902338436  TIP3      9248            0.0000000000
     52644      9448  TIP3      H2              9.7911665612       -0.2324812517      -26.1959169822  TIP3      9248            0.0000000000
     52645      9449  TIP3      OH2             3.2817033228       -2.4985903546      -24.5274719335  TIP3      9249            0.0000000000
     52646      9449  TIP3      H1              3.5323487062       -2.3215774465      -23.6051227419  TIP3      9249            0.0000000000
     52647      9449  TIP3      H2              2.3573904920       -2.7705622524      -24.3763914624  TIP3      9249            0.0000000000
     52648      9450  TIP3      OH2            12.7752094925       -1.9468969841      -29.6289125298  TIP3      9250            0.0000000000
     52649      9450  TIP3      H1             13.1536980910       -2.8072946075      -29.8859395027  TIP3      9250            0.0000000000
     52650      9450  TIP3      H2             12.7575153408       -2.0393338410      -28.6537594268  TIP3      9250            0.0000000000
     52651      9451  TIP3      OH2            12.3622030029       -2.3715761737      -26.9153673810  TIP3      9251            0.0000000000
     52652      9451  TIP3      H1             11.4733308401       -2.0273379517      -26.6562182998  TIP3      9251            0.0000000000
     52653      9451  TIP3      H2             12.4794128614       -3.0479597161      -26.2215032229  TIP3      9251            0.0000000000
     52654      9452  TIP3      OH2             5.2894321228      -18.3413490987      -20.0877599262  TIP3      9252            0.0000000000
     52655      9452  TIP3      H1              4.9135729672      -18.5137335369      -20.9609817404  TIP3      9252            0.0000000000
     52656      9452  TIP3      H2              5.4072118673      -17.3929064901      -20.1012255340  TIP3      9252            0.0000000000
     52657      9453  TIP3      OH2            13.8471072912       -9.6466253980      -30.0033317234  TIP3      9253            0.0000000000
     52658      9453  TIP3      H1             13.8760904919       -9.9396000373      -30.9305322866  TIP3      9253            0.0000000000
     52659      9453  TIP3      H2             14.6228168088       -9.0640243335      -29.9730586534  TIP3      9253            0.0000000000
     52660      9454  TIP3      OH2             9.2352463903      -15.8606761310      -30.2258282992  TIP3      9254            0.0000000000
     52661      9454  TIP3      H1              9.0659556825      -15.9165722184      -29.2693931008  TIP3      9254            0.0000000000
     52662      9454  TIP3      H2              9.0825487574      -16.7894288928      -30.4549805895  TIP3      9254            0.0000000000
     52663      9455  TIP3      OH2            10.7062578761      -12.3103230268      -25.5957800018  TIP3      9255            0.0000000000
     52664      9455  TIP3      H1             10.4668883440      -11.4766940512      -26.0657255503  TIP3      9255            0.0000000000
     52665      9455  TIP3      H2             11.3459985192      -12.6778358198      -26.2312204335  TIP3      9255            0.0000000000
     52666      9456  TIP3      OH2            11.6258326038      -12.9239274565      -22.9111718491  TIP3      9256            0.0000000000
     52667      9456  TIP3      H1             11.2753654511      -12.2426012108      -23.5132121028  TIP3      9256            0.0000000000
     52668      9456  TIP3      H2             11.7302172877      -13.6522622086      -23.5538646745  TIP3      9256            0.0000000000
     52669      9457  TIP3      OH2            -0.4819506271      -16.1224960536      -23.7231146169  TIP3      9257            0.0000000000
     52670      9457  TIP3      H1              0.4084689928      -15.9754826117      -23.3733431364  TIP3      9257            0.0000000000
     52671      9457  TIP3      H2             -0.2287253055      -16.3734586187      -24.6343496700  TIP3      9257            0.0000000000
     52672      9458  TIP3      OH2             8.4425462902       -7.9472740947      -27.2381937607  TIP3      9258            0.0000000000
     52673      9458  TIP3      H1              7.8123692276       -8.4495954577      -27.8004399488  TIP3      9258            0.0000000000
     52674      9458  TIP3      H2              7.8771592662       -7.8236118143      -26.4351983155  TIP3      9258            0.0000000000
     52675      9459  TIP3      OH2            12.1977623551      -15.3644716558      -29.3130101624  TIP3      9259            0.0000000000
     52676      9459  TIP3      H1             11.2821167911      -15.2023608365      -29.6048387674  TIP3      9259            0.0000000000
     52677      9459  TIP3      H2             12.4065072682      -14.5361238741      -28.8279613365  TIP3      9259            0.0000000000
     52678      9460  TIP3      OH2            12.7508055816      -13.2305707028      -27.8534365269  TIP3      9260            0.0000000000
     52679      9460  TIP3      H1             13.5333041754      -13.4060877215      -27.3011367183  TIP3      9260            0.0000000000
     52680      9460  TIP3      H2             12.9191437349      -12.3555597296      -28.2347953008  TIP3      9260            0.0000000000
     52681      9461  TIP3      OH2            10.2269104253       -6.4460930702      -28.5504753602  TIP3      9261            0.0000000000
     52682      9461  TIP3      H1              9.9418441202       -5.5675989391      -28.2153382982  TIP3      9261            0.0000000000
     52683      9461  TIP3      H2              9.5873954221       -7.0595335022      -28.1197721900  TIP3      9261            0.0000000000
     52684      9462  TIP3      OH2            17.6127946421      -12.9199186420      -28.0458886596  TIP3      9262            0.0000000000
     52685      9462  TIP3      H1             17.3889166026      -13.2158171407      -28.9465112780  TIP3      9262            0.0000000000
     52686      9462  TIP3      H2             17.7047128277      -11.9546790836      -28.2242889786  TIP3      9262            0.0000000000
     52687      9463  TIP3      OH2            16.1746531868       -4.9013483605      -27.5357012176  TIP3      9263            0.0000000000
     52688      9463  TIP3      H1             15.3953178270       -5.3778028949      -27.2165567535  TIP3      9263            0.0000000000
     52689      9463  TIP3      H2             16.2044162797       -5.1563701951      -28.4643519859  TIP3      9263            0.0000000000
     52690      9464  TIP3      OH2            12.9551479105       -9.9208467880      -20.5908687020  TIP3      9264            0.0000000000
     52691      9464  TIP3      H1             12.5420220333       -9.3954646537      -21.2865216905  TIP3      9264            0.0000000000
     52692      9464  TIP3      H2             13.3420022550      -10.6723615710      -21.0829477579  TIP3      9264            0.0000000000
     52693      9465  TIP3      OH2             5.9966643822       -5.3308749872      -24.3273013679  TIP3      9265            0.0000000000
     52694      9465  TIP3      H1              6.2980738653       -4.4599933216      -24.6446581619  TIP3      9265            0.0000000000
     52695      9465  TIP3      H2              5.0545799868       -5.2953310997      -24.5122275715  TIP3      9265            0.0000000000
     52696      9466  TIP3      OH2             1.7885774811      -10.0986673543      -29.8028372259  TIP3      9266            0.0000000000
     52697      9466  TIP3      H1              2.1650297708       -9.4510643718      -29.1630641781  TIP3      9266            0.0000000000
     52698      9466  TIP3      H2              0.8358567845      -10.0999174966      -29.5623650393  TIP3      9266            0.0000000000
     52699      9467  TIP3      OH2             6.9160528363       -7.7692826444      -25.0089216821  TIP3      9267            0.0000000000
     52700      9467  TIP3      H1              6.6177419847       -6.8901027974      -24.6923632055  TIP3      9267            0.0000000000
     52701      9467  TIP3      H2              7.0405443018       -8.2386288188      -24.1630893355  TIP3      9267            0.0000000000
     52702      9468  TIP3      OH2             6.0372686057       -2.8369848755      -25.4493137347  TIP3      9268            0.0000000000
     52703      9468  TIP3      H1              5.0753200272       -2.7379067473      -25.3210258673  TIP3      9268            0.0000000000
     52704      9468  TIP3      H2              6.3761468044       -2.0354856037      -24.9856383103  TIP3      9268            0.0000000000
     52705      9469  TIP3      OH2            13.6766723348       -6.3134272391      -29.5146060633  TIP3      9269            0.0000000000
     52706      9469  TIP3      H1             13.6816724412       -6.6142517134      -28.5829872284  TIP3      9269            0.0000000000
     52707      9469  TIP3      H2             12.7626452879       -6.5625030591      -29.7361632656  TIP3      9269            0.0000000000
     52708      9470  TIP3      OH2            17.8450344284       -2.0717402065      -29.5653050890  TIP3      9270            0.0000000000
     52709      9470  TIP3      H1             18.0614414058       -1.3166943409      -30.1496450382  TIP3      9270            0.0000000000
     52710      9470  TIP3      H2             17.1249191381       -1.6870996023      -29.0254318226  TIP3      9270            0.0000000000
     52711      9471  TIP3      OH2            14.4481634411       -7.9828913138      -27.2360815606  TIP3      9271            0.0000000000
     52712      9471  TIP3      H1             14.2229955638       -8.8672071195      -26.8873701669  TIP3      9271            0.0000000000
     52713      9471  TIP3      H2             15.4184629725       -8.0885707347      -27.3459119755  TIP3      9271            0.0000000000
     52714      9472  TIP3      OH2             7.5993568870       -5.1662445106      -31.1353306363  TIP3      9272            0.0000000000
     52715      9472  TIP3      H1              7.4179588234       -5.7441413254      -31.8929367336  TIP3      9272            0.0000000000
     52716      9472  TIP3      H2              7.0644916600       -5.6101361315      -30.4507352461  TIP3      9272            0.0000000000
     52717      9473  TIP3      OH2             6.2686037945       -5.9402279245      -28.6104318476  TIP3      9273            0.0000000000
     52718      9473  TIP3      H1              6.9358938992       -6.3711339432      -28.0491582542  TIP3      9273            0.0000000000
     52719      9473  TIP3      H2              6.4282281685       -4.9936600869      -28.3531176346  TIP3      9273            0.0000000000
     52720      9474  TIP3      OH2             3.0833874226       -8.4340095967      -28.1691572265  TIP3      9274            0.0000000000
     52721      9474  TIP3      H1              2.2847754282       -8.0167000142      -27.7671896757  TIP3      9274            0.0000000000
     52722      9474  TIP3      H2              3.4878662276       -7.6838940152      -28.6404172917  TIP3      9274            0.0000000000
     52723      9475  TIP3      OH2            11.3320459451      -16.5324828205      -26.8593010049  TIP3      9275            0.0000000000
     52724      9475  TIP3      H1             11.6116621324      -16.1719530052      -27.7162007548  TIP3      9275            0.0000000000
     52725      9475  TIP3      H2             12.0056143019      -16.1579211013      -26.2696423678  TIP3      9275            0.0000000000
     52726      9476  TIP3      OH2             9.2820938825       -3.9321933357      -28.0360659881  TIP3      9276            0.0000000000
     52727      9476  TIP3      H1              8.3932675035       -3.6137247680      -27.7849423054  TIP3      9276            0.0000000000
     52728      9476  TIP3      H2              9.7199872489       -3.0992261936      -28.2768135311  TIP3      9276            0.0000000000
     52729      9477  TIP3      OH2             8.7091222971      -14.4988210738      -26.0687129763  TIP3      9277            0.0000000000
     52730      9477  TIP3      H1              9.3869002768      -13.8752150474      -25.7537817215  TIP3      9277            0.0000000000
     52731      9477  TIP3      H2              8.2122945313      -14.7285360436      -25.2702916195  TIP3      9277            0.0000000000
     52732      9478  TIP3      OH2             9.2729605109      -17.6662671017      -25.4015311009  TIP3      9278            0.0000000000
     52733      9478  TIP3      H1              9.5281963616      -17.2884899554      -24.5448482935  TIP3      9278            0.0000000000
     52734      9478  TIP3      H2              9.9704292858      -17.2901685596      -25.9854558973  TIP3      9278            0.0000000000
     52735      9479  TIP3      OH2             6.5720659203       -3.4245715784      -28.0824235262  TIP3      9279            0.0000000000
     52736      9479  TIP3      H1              6.7194705903       -2.6375309314      -28.6547796707  TIP3      9279            0.0000000000
     52737      9479  TIP3      H2              6.2405765663       -2.9642600706      -27.2888862304  TIP3      9279            0.0000000000
     52738      9480  TIP3      OH2            13.9296575403      -11.9537426163      -22.1079223181  TIP3      9280            0.0000000000
     52739      9480  TIP3      H1             13.0796383031      -12.4051220350      -22.2968688362  TIP3      9280            0.0000000000
     52740      9480  TIP3      H2             14.4327886191      -12.6269331886      -21.5988671416  TIP3      9280            0.0000000000
     52741      9481  TIP3      OH2             3.5413919259       -6.1100812878      -29.6785800602  TIP3      9281            0.0000000000
     52742      9481  TIP3      H1              4.2864423694       -5.7352205923      -29.1725003502  TIP3      9281            0.0000000000
     52743      9481  TIP3      H2              4.0574230937       -6.6589411879      -30.3085054380  TIP3      9281            0.0000000000
     52744      9482  TIP3      OH2             1.8362843203      -13.1193876637      -30.1242341676  TIP3      9282            0.0000000000
     52745      9482  TIP3      H1              2.0457716735      -12.1906127428      -29.9566521941  TIP3      9282            0.0000000000
     52746      9482  TIP3      H2              0.8958600303      -13.0701917389      -30.3380866704  TIP3      9282            0.0000000000
     52747      9483  TIP3      OH2            14.6919601151       -2.5032146306      -20.1272903759  TIP3      9283            0.0000000000
     52748      9483  TIP3      H1             14.9844657826       -1.9136515459      -20.8353172560  TIP3      9283            0.0000000000
     52749      9483  TIP3      H2             14.5990377116       -3.3655106258      -20.5736653178  TIP3      9283            0.0000000000
     52750      9484  TIP3      OH2             1.2141483216       -5.0582234128      -25.7908248283  TIP3      9284            0.0000000000
     52751      9484  TIP3      H1              1.1346479116       -4.4447327158      -25.0492750898  TIP3      9284            0.0000000000
     52752      9484  TIP3      H2              1.3074267897       -4.3997196790      -26.5138878836  TIP3      9284            0.0000000000
     52753      9485  TIP3      OH2             9.6779753666       -3.1574184030      -31.2305519756  TIP3      9285            0.0000000000
     52754      9485  TIP3      H1              9.1707103436       -3.9787148801      -31.0747372638  TIP3      9285            0.0000000000
     52755      9485  TIP3      H2             10.4669320700       -3.5240293110      -31.6867759154  TIP3      9285            0.0000000000
     52756      9486  TIP3      OH2            14.0536778078       -4.0016691592      -31.0423366232  TIP3      9286            0.0000000000
     52757      9486  TIP3      H1             14.1835613253       -4.7206786489      -30.3839787158  TIP3      9286            0.0000000000
     52758      9486  TIP3      H2             14.9596141675       -3.8267754376      -31.3556663337  TIP3      9286            0.0000000000
     52759      9487  TIP3      OH2             5.0508851634       -7.9553765764      -31.1712947090  TIP3      9287            0.0000000000
     52760      9487  TIP3      H1              5.2687266525       -8.4272616403      -30.3458232730  TIP3      9287            0.0000000000
     52761      9487  TIP3      H2              5.8358294266       -8.1927636286      -31.7149834168  TIP3      9287            0.0000000000
     52762      9488  TIP3      OH2            10.7820646968       -6.5836033292      -31.2728956439  TIP3      9288            0.0000000000
     52763      9488  TIP3      H1             10.3942569856       -6.6157863577      -30.3673827687  TIP3      9288            0.0000000000
     52764      9488  TIP3      H2             10.7037024034       -7.5386550333      -31.5227371530  TIP3      9288            0.0000000000
     52765      9489  TIP3      OH2             6.3486062503       -9.5024190030      -28.6072778106  TIP3      9289            0.0000000000
     52766      9489  TIP3      H1              5.7262153162      -10.0405310594      -28.0669809397  TIP3      9289            0.0000000000
     52767      9489  TIP3      H2              6.7649693322      -10.1852994792      -29.1769541441  TIP3      9289            0.0000000000
     52768      9490  TIP3      OH2             7.4245978270      -11.2972413989      -30.4904685031  TIP3      9290            0.0000000000
     52769      9490  TIP3      H1              7.3920644231      -11.2161342033      -31.4587641888  TIP3      9290            0.0000000000
     52770      9490  TIP3      H2              8.3685939804      -11.5220301916      -30.3401972255  TIP3      9290            0.0000000000
     52771      9491  TIP3      OH2            16.5960456907       -9.5159454292      -31.1214113262  TIP3      9291            0.0000000000
     52772      9491  TIP3      H1             16.4351684040       -9.6425058354      -32.0841029391  TIP3      9291            0.0000000000
     52773      9491  TIP3      H2             16.5758799576       -8.5294073540      -31.0792611881  TIP3      9291            0.0000000000
     52774      9492  TIP3      OH2             7.2466321772       -1.0571261557      -28.9847280680  TIP3      9292            0.0000000000
     52775      9492  TIP3      H1              8.2271825318       -1.0934579961      -29.0274570126  TIP3      9292            0.0000000000
     52776      9492  TIP3      H2              7.0571012763       -0.4664229739      -29.7341189160  TIP3      9292            0.0000000000
     52777      9493  TIP3      OH2             0.7212784767       -6.4181396974      -29.7827844434  TIP3      9293            0.0000000000
     52778      9493  TIP3      H1              1.7012512259       -6.3194263585      -29.8008486860  TIP3      9293            0.0000000000
     52779      9493  TIP3      H2              0.5590896639       -6.9509711053      -30.5956009411  TIP3      9293            0.0000000000
     52780      9494  TIP3      OH2             0.4912631704       -3.0326995577      -23.1472656642  TIP3      9294            0.0000000000
     52781      9494  TIP3      H1             -0.2274591180       -3.6620271021      -22.9654326261  TIP3      9294            0.0000000000
     52782      9494  TIP3      H2              0.6312351820       -2.6903260324      -22.2477313522  TIP3      9294            0.0000000000
     52783      9495  TIP3      OH2            17.0983947556       -8.5765132417      -27.2167803389  TIP3      9295            0.0000000000
     52784      9495  TIP3      H1             17.9542018045       -8.1155262796      -27.1487527936  TIP3      9295            0.0000000000
     52785      9495  TIP3      H2             17.1342023958       -9.2171848477      -26.4653605344  TIP3      9295            0.0000000000
     52786      9496  TIP3      OH2            17.3579265731      -10.4261251169      -25.2080003867  TIP3      9296            0.0000000000
     52787      9496  TIP3      H1             16.6662460136      -11.0446302482      -24.8874895074  TIP3      9296            0.0000000000
     52788      9496  TIP3      H2             17.9354288988      -10.3907270067      -24.4224239173  TIP3      9296            0.0000000000
     52789      9497  TIP3      OH2            18.0819560044      -10.4202357584      -29.0363740738  TIP3      9297            0.0000000000
     52790      9497  TIP3      H1             17.4414161757      -10.2292342676      -29.7554676452  TIP3      9297            0.0000000000
     52791      9497  TIP3      H2             17.9063824756       -9.6743742375      -28.4303412980  TIP3      9297            0.0000000000
     52792      9498  TIP3      OH2            16.8441075829      -13.4392166171      -30.7005455166  TIP3      9298            0.0000000000
     52793      9498  TIP3      H1             16.4983242672      -12.6442004570      -31.1268118732  TIP3      9298            0.0000000000
     52794      9498  TIP3      H2             16.1504244193      -14.0832645213      -30.9865107017  TIP3      9298            0.0000000000
     52795      9499  TIP3      OH2            15.3298168382      -12.1026205701      -24.4328187683  TIP3      9299            0.0000000000
     52796      9499  TIP3      H1             15.6807156373      -12.9974199767      -24.4682609590  TIP3      9299            0.0000000000
     52797      9499  TIP3      H2             14.8761999679      -12.0713763566      -23.5635476497  TIP3      9299            0.0000000000
     52798      9500  TIP3      OH2            15.1130043973      -15.3810495455      -31.2477851438  TIP3      9300            0.0000000000
     52799      9500  TIP3      H1             15.6795422997      -15.9802834023      -30.7524233320  TIP3      9300            0.0000000000
     52800      9500  TIP3      H2             14.2911094464      -15.9023828377      -31.3010885222  TIP3      9300            0.0000000000
     52801      9501  TIP3      OH2            14.8925541174      -14.3897461268      -26.2738736297  TIP3      9301            0.0000000000
     52802      9501  TIP3      H1             15.2690140157      -15.2096193195      -25.9063855183  TIP3      9301            0.0000000000
     52803      9501  TIP3      H2             15.6868777810      -13.8869147890      -26.5321867714  TIP3      9301            0.0000000000
     52804      9502  TIP3      OH2            15.3243542702      -13.8855278590      -20.8459572031  TIP3      9302            0.0000000000
     52805      9502  TIP3      H1             16.2362263928      -14.1467415249      -20.6819909077  TIP3      9302            0.0000000000
     52806      9502  TIP3      H2             14.8698016627      -14.2723076207      -20.0453197266  TIP3      9302            0.0000000000
     52807      9503  TIP3      OH2            -0.1799345144      -16.4103850131      -26.5188819835  TIP3      9303            0.0000000000
     52808      9503  TIP3      H1             -1.0179624995      -16.6934242997      -26.1072869458  TIP3      9303            0.0000000000
     52809      9503  TIP3      H2             -0.5355992924      -16.1460881514      -27.3868707839  TIP3      9303            0.0000000000
     52810      9504  TIP3      OH2            14.6608981007       -1.7430035674      -24.6992067423  TIP3      9304            0.0000000000
     52811      9504  TIP3      H1             15.5439108101       -2.1350210182      -24.8425200333  TIP3      9304            0.0000000000
     52812      9504  TIP3      H2             14.7075154361       -1.4272937510      -23.7714510693  TIP3      9304            0.0000000000
     52813      9505  TIP3      OH2             5.8244260800       -2.9950488854      -21.2176731429  TIP3      9305            0.0000000000
     52814      9505  TIP3      H1              5.4885513492       -3.8677157949      -21.4671295332  TIP3      9305            0.0000000000
     52815      9505  TIP3      H2              6.3063510761       -3.2194954837      -20.4143714293  TIP3      9305            0.0000000000
     52816      9506  TIP3      OH2            10.0021318279      -17.3768048263      -22.5257922898  TIP3      9306            0.0000000000
     52817      9506  TIP3      H1              9.5404086664      -17.9996940027      -21.9496969512  TIP3      9306            0.0000000000
     52818      9506  TIP3      H2             10.7738582057      -17.8987454114      -22.8416202572  TIP3      9306            0.0000000000
     52819      9507  TIP3      OH2             6.5347733428      -18.5405198680      -24.7049818086  TIP3      9307            0.0000000000
     52820      9507  TIP3      H1              7.4499735823      -18.4086214065      -24.9946827451  TIP3      9307            0.0000000000
     52821      9507  TIP3      H2              6.6369967685      -19.1083818867      -23.9449900512  TIP3      9307            0.0000000000
     52822      9508  TIP3      OH2            12.1765000237      -18.6692163058      -23.4323101658  TIP3      9308            0.0000000000
     52823      9508  TIP3      H1             13.1053654800      -18.6865395297      -23.7149747984  TIP3      9308            0.0000000000
     52824      9508  TIP3      H2             12.0539853060      -19.5915277453      -23.1741595032  TIP3      9308            0.0000000000
     52825      9509  TIP3      OH2            13.4790473106      -18.8202669197      -27.1892247385  TIP3      9309            0.0000000000
     52826      9509  TIP3      H1             12.6465243805      -18.3989751775      -26.9573521581  TIP3      9309            0.0000000000
     52827      9509  TIP3      H2             13.6440438183      -19.4376464872      -26.4514274705  TIP3      9309            0.0000000000
     52828      9510  TIP3      OH2             1.1185712509       -2.9877177866      -27.5028956804  TIP3      9310            0.0000000000
     52829      9510  TIP3      H1              0.1874546194       -3.0538437841      -27.7752974837  TIP3      9310            0.0000000000
     52830      9510  TIP3      H2              1.2935083923       -2.0472279997      -27.7144640014  TIP3      9310            0.0000000000
     52831      9511  TIP3      OH2             7.9302584045      -16.5804566783      -27.6935577705  TIP3      9311            0.0000000000
     52832      9511  TIP3      H1              8.2950098068      -17.1798449446      -27.0083241284  TIP3      9311            0.0000000000
     52833      9511  TIP3      H2              8.0715081172      -15.7200589858      -27.2433730369  TIP3      9311            0.0000000000
     52834      9512  TIP3      OH2             9.9279049897       -1.4875387022      -29.1738272878  TIP3      9312            0.0000000000
     52835      9512  TIP3      H1             10.8476825436       -1.3867547591      -29.4780189891  TIP3      9312            0.0000000000
     52836      9512  TIP3      H2              9.6249222494       -2.0823616844      -29.9084246179  TIP3      9312            0.0000000000
     52837      9513  TIP3      OH2            16.8406791763       -2.5594048329      -26.0516161569  TIP3      9313            0.0000000000
     52838      9513  TIP3      H1             16.5381521178       -3.3151729675      -26.6022882973  TIP3      9313            0.0000000000
     52839      9513  TIP3      H2             16.5200683375       -1.7901418433      -26.5623670928  TIP3      9313            0.0000000000
     52840      9514  TIP3      OH2             2.7791001152       -2.0903636807      -30.5810916056  TIP3      9314            0.0000000000
     52841      9514  TIP3      H1              2.5368272319       -1.8885495879      -29.6702918688  TIP3      9314            0.0000000000
     52842      9514  TIP3      H2              3.4928217780       -2.7383667766      -30.4620962270  TIP3      9314            0.0000000000
     52843      9515  TIP3      OH2            30.5327825458       -9.5238188734      -24.3715134839  TIP3      9315            0.0000000000
     52844      9515  TIP3      H1             30.1997831004       -8.6087702412      -24.3223178772  TIP3      9315            0.0000000000
     52845      9515  TIP3      H2             29.8159790517       -9.9736922027      -24.8446090073  TIP3      9315            0.0000000000
     52846      9516  TIP3      OH2            32.7981856482       -6.8523860486      -22.4097324733  TIP3      9316            0.0000000000
     52847      9516  TIP3      H1             33.0711162451       -7.7655402804      -22.2375888342  TIP3      9316            0.0000000000
     52848      9516  TIP3      H2             32.9888489832       -6.4194179448      -21.5718726528  TIP3      9316            0.0000000000
     52849      9517  TIP3      OH2            22.3919844767       -6.1098474579      -20.7361427294  TIP3      9317            0.0000000000
     52850      9517  TIP3      H1             21.7365958848       -6.6853583724      -21.1443740638  TIP3      9317            0.0000000000
     52851      9517  TIP3      H2             22.5271302360       -6.5541381567      -19.8810975680  TIP3      9317            0.0000000000
     52852      9518  TIP3      OH2            19.5177851157      -10.8244526247      -23.2277268730  TIP3      9318            0.0000000000
     52853      9518  TIP3      H1             19.8353260077      -11.7275936385      -23.3815077742  TIP3      9318            0.0000000000
     52854      9518  TIP3      H2             20.0320271683      -10.3095777587      -23.8507076706  TIP3      9318            0.0000000000
     52855      9519  TIP3      OH2            31.8682803615      -15.3717286373      -24.7581522374  TIP3      9319            0.0000000000
     52856      9519  TIP3      H1             32.1908541207      -15.5186310094      -23.8394305174  TIP3      9319            0.0000000000
     52857      9519  TIP3      H2             31.8768265167      -14.4042860931      -24.7741135276  TIP3      9319            0.0000000000
     52858      9520  TIP3      OH2            29.6615929199       -6.9887170254      -25.5749847685  TIP3      9320            0.0000000000
     52859      9520  TIP3      H1             29.8181803357       -7.0067170179      -26.5357606809  TIP3      9320            0.0000000000
     52860      9520  TIP3      H2             29.6164971296       -6.0284775188      -25.3684205646  TIP3      9320            0.0000000000
     52861      9521  TIP3      OH2            32.9244752258      -15.6384881830      -22.2427081562  TIP3      9321            0.0000000000
     52862      9521  TIP3      H1             32.6749891052      -16.4581079600      -21.7854012757  TIP3      9321            0.0000000000
     52863      9521  TIP3      H2             33.8863504353      -15.7079908954      -22.2030668618  TIP3      9321            0.0000000000
     52864      9522  TIP3      OH2            19.6844664819       -7.3335784385      -27.3327738040  TIP3      9322            0.0000000000
     52865      9522  TIP3      H1             19.7059500034       -6.7891220448      -28.1481768461  TIP3      9322            0.0000000000
     52866      9522  TIP3      H2             19.4509567789       -6.6792926636      -26.6695848154  TIP3      9322            0.0000000000
     52867      9523  TIP3      OH2            33.0814374295       -5.9484103969      -25.3972697552  TIP3      9323            0.0000000000
     52868      9523  TIP3      H1             32.4272018895       -6.6288409905      -25.6442943512  TIP3      9323            0.0000000000
     52869      9523  TIP3      H2             33.1440399952       -6.0826973965      -24.4385985074  TIP3      9323            0.0000000000
     52870      9524  TIP3      OH2            29.0558175754      -10.1929039854      -26.8472878413  TIP3      9324            0.0000000000
     52871      9524  TIP3      H1             28.4737975115       -9.4480867082      -27.1016239812  TIP3      9324            0.0000000000
     52872      9524  TIP3      H2             29.8289601370      -10.0692448577      -27.4370165040  TIP3      9324            0.0000000000
     52873      9525  TIP3      OH2            29.0951419389      -11.3947280860      -29.8785603167  TIP3      9325            0.0000000000
     52874      9525  TIP3      H1             29.8043842853      -11.0305674678      -29.3085837377  TIP3      9325            0.0000000000
     52875      9525  TIP3      H2             29.3103932362      -12.3302281948      -29.8067010715  TIP3      9325            0.0000000000
     52876      9526  TIP3      OH2            32.7054937363      -10.1566979789      -25.8672156758  TIP3      9326            0.0000000000
     52877      9526  TIP3      H1             31.9979348471       -9.8756949481      -25.2426170017  TIP3      9326            0.0000000000
     52878      9526  TIP3      H2             33.3173366507      -10.6381407565      -25.2603075801  TIP3      9326            0.0000000000
     52879      9527  TIP3      OH2            24.2493049198       -9.2281808118      -23.6755170672  TIP3      9327            0.0000000000
     52880      9527  TIP3      H1             24.0385712000       -9.3539252447      -24.6123650475  TIP3      9327            0.0000000000
     52881      9527  TIP3      H2             24.2971812162      -10.1303980963      -23.3292103933  TIP3      9327            0.0000000000
     52882      9528  TIP3      OH2            31.3106508386      -10.6810979809      -28.3074744009  TIP3      9328            0.0000000000
     52883      9528  TIP3      H1             31.9004082276      -10.3947020501      -27.5824674284  TIP3      9328            0.0000000000
     52884      9528  TIP3      H2             31.7714336013      -10.2244209261      -29.0611459049  TIP3      9328            0.0000000000
     52885      9529  TIP3      OH2            29.1977915119       -4.3883270622      -24.7806104355  TIP3      9329            0.0000000000
     52886      9529  TIP3      H1             29.6483373211       -3.7778621065      -24.1843723733  TIP3      9329            0.0000000000
     52887      9529  TIP3      H2             28.4570260255       -3.8785629077      -25.1365512111  TIP3      9329            0.0000000000
     52888      9530  TIP3      OH2            34.7060760882      -19.1343228082      -28.5090567476  TIP3      9330            0.0000000000
     52889      9530  TIP3      H1             33.7648830908      -19.1088690977      -28.2561581168  TIP3      9330            0.0000000000
     52890      9530  TIP3      H2             35.0145630393      -18.2408679476      -28.2690138607  TIP3      9330            0.0000000000
     52891      9531  TIP3      OH2            36.1639667123       -4.5595670505      -30.3168126608  TIP3      9331            0.0000000000
     52892      9531  TIP3      H1             36.3892327011       -3.6393791444      -30.0599615833  TIP3      9331            0.0000000000
     52893      9531  TIP3      H2             37.0347346037       -4.9494594195      -30.1666138017  TIP3      9331            0.0000000000
     52894      9532  TIP3      OH2            24.2362581454      -17.9905025988      -21.1520075385  TIP3      9332            0.0000000000
     52895      9532  TIP3      H1             23.2960335104      -18.2019743465      -21.3320783119  TIP3      9332            0.0000000000
     52896      9532  TIP3      H2             24.2249006609      -17.5716022696      -20.2762871726  TIP3      9332            0.0000000000
     52897      9533  TIP3      OH2            32.6028683002       -9.3793426207      -30.1499746521  TIP3      9333            0.0000000000
     52898      9533  TIP3      H1             32.4540673852       -9.3853719922      -31.1157789147  TIP3      9333            0.0000000000
     52899      9533  TIP3      H2             33.5296954144       -9.0853902301      -30.0875694480  TIP3      9333            0.0000000000
     52900      9534  TIP3      OH2            28.4787087497      -15.7221437259      -30.0603718286  TIP3      9334            0.0000000000
     52901      9534  TIP3      H1             28.1159989665      -15.7361407511      -29.1616277074  TIP3      9334            0.0000000000
     52902      9534  TIP3      H2             28.1801479808      -16.6083630365      -30.3269661298  TIP3      9334            0.0000000000
     52903      9535  TIP3      OH2            29.6500131841      -12.5661303230      -26.0067899218  TIP3      9335            0.0000000000
     52904      9535  TIP3      H1             29.4245346188      -11.6985357403      -26.4281113094  TIP3      9335            0.0000000000
     52905      9535  TIP3      H2             30.4927142168      -12.7632405949      -26.4572219575  TIP3      9335            0.0000000000
     52906      9536  TIP3      OH2            24.9240849996      -15.6356217517      -30.9687191090  TIP3      9336            0.0000000000
     52907      9536  TIP3      H1             24.5523017561      -15.9677210075      -30.1153318125  TIP3      9336            0.0000000000
     52908      9536  TIP3      H2             24.1804755316      -15.0921684285      -31.2911420155  TIP3      9336            0.0000000000
     52909      9537  TIP3      OH2            19.4071323123      -15.3892858501      -28.5741861469  TIP3      9337            0.0000000000
     52910      9537  TIP3      H1             19.0104998388      -14.6703134088      -29.0679833932  TIP3      9337            0.0000000000
     52911      9537  TIP3      H2             19.1138375210      -15.2034434618      -27.6729733877  TIP3      9337            0.0000000000
     52912      9538  TIP3      OH2            26.8087771492      -15.4012011194      -23.4933794266  TIP3      9338            0.0000000000
     52913      9538  TIP3      H1             25.9482208451      -15.0555659775      -23.2281373539  TIP3      9338            0.0000000000
     52914      9538  TIP3      H2             27.1540583988      -15.6750519414      -22.6306629680  TIP3      9338            0.0000000000
     52915      9539  TIP3      OH2            27.8206315011      -13.5510849869      -21.4814938988  TIP3      9339            0.0000000000
     52916      9539  TIP3      H1             27.9743268882      -13.0746552707      -22.2985795424  TIP3      9339            0.0000000000
     52917      9539  TIP3      H2             28.4305755432      -13.1612829506      -20.8430179643  TIP3      9339            0.0000000000
     52918      9540  TIP3      OH2            27.2232710751       -8.3609620260      -27.6589318846  TIP3      9340            0.0000000000
     52919      9540  TIP3      H1             26.5332023824       -8.6678189458      -28.2647578760  TIP3      9340            0.0000000000
     52920      9540  TIP3      H2             26.6939800104       -8.1876597244      -26.8449117289  TIP3      9340            0.0000000000
     52921      9541  TIP3      OH2            30.9754208489      -15.3714383216      -29.0743556362  TIP3      9341            0.0000000000
     52922      9541  TIP3      H1             30.1147245847      -15.1406572249      -29.4812107516  TIP3      9341            0.0000000000
     52923      9541  TIP3      H2             31.2778925308      -14.5032404302      -28.7208286318  TIP3      9341            0.0000000000
     52924      9542  TIP3      OH2            31.8231514803      -13.2967660758      -27.7732352659  TIP3      9342            0.0000000000
     52925      9542  TIP3      H1             32.6058344602      -13.3815952689      -27.1908914781  TIP3      9342            0.0000000000
     52926      9542  TIP3      H2             31.9349891560      -12.4140434514      -28.1712761906  TIP3      9342            0.0000000000
     52927      9543  TIP3      OH2            22.1593956085       -9.0815729454      -21.5400302617  TIP3      9343            0.0000000000
     52928      9543  TIP3      H1             22.6173575286       -8.8060480011      -22.3454412764  TIP3      9343            0.0000000000
     52929      9543  TIP3      H2             22.8164431751       -9.6625040751      -21.1369872718  TIP3      9343            0.0000000000
     52930      9544  TIP3      OH2            29.3436345983       -6.8789969083      -28.5704807942  TIP3      9344            0.0000000000
     52931      9544  TIP3      H1             28.9794156119       -5.9909262902      -28.4060276092  TIP3      9344            0.0000000000
     52932      9544  TIP3      H2             28.6186265805       -7.4601815879      -28.2556965837  TIP3      9344            0.0000000000
     52933      9545  TIP3      OH2            36.1466403748      -13.1657145991      -27.9526661771  TIP3      9345            0.0000000000
     52934      9545  TIP3      H1             35.6321737390      -13.5161172844      -28.7058063510  TIP3      9345            0.0000000000
     52935      9545  TIP3      H2             36.1931149793      -12.2271462935      -28.2363702747  TIP3      9345            0.0000000000
     52936      9546  TIP3      OH2            34.6084798059       -4.4305512704      -27.5948808955  TIP3      9346            0.0000000000
     52937      9546  TIP3      H1             34.1592098196       -5.1343418736      -27.0854958260  TIP3      9346            0.0000000000
     52938      9546  TIP3      H2             35.2191741827       -4.9150094202      -28.1720922168  TIP3      9346            0.0000000000
     52939      9547  TIP3      OH2            25.8217375121       -7.9427419690      -25.3967390428  TIP3      9347            0.0000000000
     52940      9547  TIP3      H1             25.8973033589       -7.0238870450      -25.1168866523  TIP3      9347            0.0000000000
     52941      9547  TIP3      H2             25.4961088541       -8.3638457059      -24.5768669559  TIP3      9347            0.0000000000
     52942      9548  TIP3      OH2            24.4683210519       -2.1736350027      -25.6458419508  TIP3      9348            0.0000000000
     52943      9548  TIP3      H1             24.3943370784       -2.4467395571      -24.7195161018  TIP3      9348            0.0000000000
     52944      9548  TIP3      H2             24.9285014176       -1.3122602212      -25.5843279978  TIP3      9348            0.0000000000
     52945      9549  TIP3      OH2            32.5531280339       -6.3626775656      -29.5543566393  TIP3      9349            0.0000000000
     52946      9549  TIP3      H1             32.5743304551       -6.6114241101      -28.6093287579  TIP3      9349            0.0000000000
     52947      9549  TIP3      H2             31.8367744681       -6.9540422803      -29.8344262834  TIP3      9349            0.0000000000
     52948      9550  TIP3      OH2            37.1152969174       -2.1341305222      -29.4222406377  TIP3      9350            0.0000000000
     52949      9550  TIP3      H1             37.3377969355       -1.2510499172      -29.7673436576  TIP3      9350            0.0000000000
     52950      9550  TIP3      H2             36.2270375158       -1.9393600016      -29.1195637973  TIP3      9350            0.0000000000
     52951      9551  TIP3      OH2            33.3206442396       -8.0137550288      -27.3129338423  TIP3      9351            0.0000000000
     52952      9551  TIP3      H1             33.2123897304       -8.8571813001      -26.8189369607  TIP3      9351            0.0000000000
     52953      9551  TIP3      H2             34.2154041365       -7.7362495627      -27.0530067384  TIP3      9351            0.0000000000
     52954      9552  TIP3      OH2            26.5586957396       -5.2107587679      -31.2422277361  TIP3      9352            0.0000000000
     52955      9552  TIP3      H1             26.3968148936       -5.7481111307      -32.0279446658  TIP3      9352            0.0000000000
     52956      9552  TIP3      H2             25.9510779188       -5.6500576786      -30.6234338488  TIP3      9352            0.0000000000
     52957      9553  TIP3      OH2            25.3100854910       -5.8374299713      -28.6005612947  TIP3      9353            0.0000000000
     52958      9553  TIP3      H1             26.1398801967       -6.2339032955      -28.2907460866  TIP3      9353            0.0000000000
     52959      9553  TIP3      H2             25.4526653309       -4.8979431012      -28.3707204017  TIP3      9353            0.0000000000
     52960      9554  TIP3      OH2            30.2138893285      -16.4084140699      -26.7278970879  TIP3      9354            0.0000000000
     52961      9554  TIP3      H1             30.4798743495      -15.9514761010      -27.5480566992  TIP3      9354            0.0000000000
     52962      9554  TIP3      H2             30.8318820235      -16.0176677169      -26.0751605610  TIP3      9354            0.0000000000
     52963      9555  TIP3      OH2            28.0422796551       -4.3526986015      -28.2877074197  TIP3      9355            0.0000000000
     52964      9555  TIP3      H1             27.1654156011       -3.9494920105      -28.1090439529  TIP3      9355            0.0000000000
     52965      9555  TIP3      H2             28.2961850060       -3.8666657040      -29.0977811124  TIP3      9355            0.0000000000
     52966      9556  TIP3      OH2            27.7609343419      -14.6347954462      -25.8661574457  TIP3      9356            0.0000000000
     52967      9556  TIP3      H1             28.3374619791      -13.8498113105      -25.7268241315  TIP3      9356            0.0000000000
     52968      9556  TIP3      H2             27.4997929280      -14.9036695010      -24.9500897797  TIP3      9356            0.0000000000
     52969      9557  TIP3      OH2            28.3021830025      -17.8341609468      -25.4788271091  TIP3      9357            0.0000000000
     52970      9557  TIP3      H1             28.2835720851      -17.5556840611      -24.5506006152  TIP3      9357            0.0000000000
     52971      9557  TIP3      H2             28.7930092189      -17.0915529579      -25.9093588434  TIP3      9357            0.0000000000
     52972      9558  TIP3      OH2            25.6182250213       -3.2465429972      -27.8426955336  TIP3      9358            0.0000000000
     52973      9558  TIP3      H1             25.7029771729       -2.4783360635      -28.4581767478  TIP3      9358            0.0000000000
     52974      9558  TIP3      H2             25.0728813198       -2.8491041876      -27.1269156311  TIP3      9358            0.0000000000
     52975      9559  TIP3      OH2            24.1967792518      -16.6586056314      -28.5665446937  TIP3      9359            0.0000000000
     52976      9559  TIP3      H1             24.2028926784      -16.0791804901      -27.7992457803  TIP3      9359            0.0000000000
     52977      9559  TIP3      H2             25.1024193213      -17.0307047779      -28.5335193630  TIP3      9359            0.0000000000
     52978      9560  TIP3      OH2            22.3204218795       -6.0760585471      -29.7935719121  TIP3      9360            0.0000000000
     52979      9560  TIP3      H1             23.0769506838       -5.7587405672      -29.2782740636  TIP3      9360            0.0000000000
     52980      9560  TIP3      H2             22.8045129016       -6.6056980578      -30.4547978019  TIP3      9360            0.0000000000
     52981      9561  TIP3      OH2            34.0295878300       -2.6270890519      -20.5156696232  TIP3      9361            0.0000000000
     52982      9561  TIP3      H1             33.4400206731       -2.3910170587      -21.2607091420  TIP3      9361            0.0000000000
     52983      9561  TIP3      H2             34.7617987118       -2.0025264032      -20.5768089095  TIP3      9361            0.0000000000
     52984      9562  TIP3      OH2            21.8382916063      -18.5243194611      -22.2435611773  TIP3      9362            0.0000000000
     52985      9562  TIP3      H1             21.3233046774      -17.7189035567      -22.4061966826  TIP3      9362            0.0000000000
     52986      9562  TIP3      H2             21.1399536980      -19.2103376205      -22.2359137479  TIP3      9362            0.0000000000
     52987      9563  TIP3      OH2            28.6973936171       -3.3842154358      -30.7990280930  TIP3      9363            0.0000000000
     52988      9563  TIP3      H1             28.0390055733       -4.0842341939      -31.0060855718  TIP3      9363            0.0000000000
     52989      9563  TIP3      H2             29.4107383003       -3.6243155998      -31.4329142118  TIP3      9363            0.0000000000
     52990      9564  TIP3      OH2            33.1275165059       -3.6968089165      -30.9679000293  TIP3      9364            0.0000000000
     52991      9564  TIP3      H1             33.3393865959       -4.4108781326      -30.3341507784  TIP3      9364            0.0000000000
     52992      9564  TIP3      H2             33.8628871617       -3.7907154381      -31.6083978544  TIP3      9364            0.0000000000
     52993      9565  TIP3      OH2            24.0460598728       -7.8279149226      -31.2259405137  TIP3      9365            0.0000000000
     52994      9565  TIP3      H1             24.1562810269       -8.5188985796      -30.5567624119  TIP3      9365            0.0000000000
     52995      9565  TIP3      H2             24.7842145575       -8.0519042573      -31.8379967172  TIP3      9365            0.0000000000
     52996      9566  TIP3      OH2            29.4981630645       -6.6183962668      -31.5666878878  TIP3      9366            0.0000000000
     52997      9566  TIP3      H1             29.2675763383       -6.7608602036      -30.6329491868  TIP3      9366            0.0000000000
     52998      9566  TIP3      H2             29.4759679880       -7.5623263918      -31.8471632127  TIP3      9366            0.0000000000
     52999      9567  TIP3      OH2            25.8041071358      -11.2562433597      -30.6353623222  TIP3      9367            0.0000000000
     53000      9567  TIP3      H1             25.8271717732      -11.1865750245      -31.6122159821  TIP3      9367            0.0000000000
     53001      9567  TIP3      H2             26.7076132579      -11.5153428076      -30.4123719162  TIP3      9367            0.0000000000
     53002      9568  TIP3      OH2            35.3568248811       -9.2581999293      -31.1070976839  TIP3      9368            0.0000000000
     53003      9568  TIP3      H1             34.9774974022       -9.5082221237      -31.9760394937  TIP3      9368            0.0000000000
     53004      9568  TIP3      H2             35.4374736862       -8.2774463103      -31.1787175151  TIP3      9368            0.0000000000
     53005      9569  TIP3      OH2            26.4350210591       -1.0468841070      -28.9378960964  TIP3      9369            0.0000000000
     53006      9569  TIP3      H1             27.2794735936       -0.6031245749      -28.8443669728  TIP3      9369            0.0000000000
     53007      9569  TIP3      H2             26.0641812402       -0.5738287089      -29.7113594772  TIP3      9369            0.0000000000
     53008      9570  TIP3      OH2            19.4943014679       -6.2975594426      -29.9299244739  TIP3      9370            0.0000000000
     53009      9570  TIP3      H1             20.4762722478       -6.2908444209      -29.9325890812  TIP3      9370            0.0000000000
     53010      9570  TIP3      H2             19.3099274087       -6.8703357794      -30.7061211360  TIP3      9370            0.0000000000
     53011      9571  TIP3      OH2            36.2328393382       -8.1270127102      -27.0281421002  TIP3      9371            0.0000000000
     53012      9571  TIP3      H1             37.1541770530       -7.9576929020      -27.2793704437  TIP3      9371            0.0000000000
     53013      9571  TIP3      H2             36.3647702557       -8.8165273212      -26.3380780603  TIP3      9371            0.0000000000
     53014      9572  TIP3      OH2            36.4427720884      -10.1903047633      -25.2685436834  TIP3      9372            0.0000000000
     53015      9572  TIP3      H1             35.6459354723      -10.6788309209      -24.9767876344  TIP3      9372            0.0000000000
     53016      9572  TIP3      H2             36.8903331224      -10.0461688564      -24.4171162486  TIP3      9372            0.0000000000
     53017      9573  TIP3      OH2            35.7638945481       -7.8745331170      -20.3850188067  TIP3      9373            0.0000000000
     53018      9573  TIP3      H1             36.6048958833       -8.2746920913      -20.6795107328  TIP3      9373            0.0000000000
     53019      9573  TIP3      H2             35.8610598863       -6.9782135655      -20.7218043478  TIP3      9373            0.0000000000
     53020      9574  TIP3      OH2            36.3158394509      -10.3188224599      -28.6566883121  TIP3      9374            0.0000000000
     53021      9574  TIP3      H1             35.9776607643      -10.1128881902      -29.5464481457  TIP3      9374            0.0000000000
     53022      9574  TIP3      H2             36.0616724836       -9.5161358540      -28.1698311145  TIP3      9374            0.0000000000
     53023      9575  TIP3      OH2            34.7613019619      -13.5208152151      -30.5493049785  TIP3      9375            0.0000000000
     53024      9575  TIP3      H1             34.8397151716      -12.9818800879      -31.3484688983  TIP3      9375            0.0000000000
     53025      9575  TIP3      H2             34.5223415010      -14.3695752098      -30.9794091516  TIP3      9375            0.0000000000
     53026      9576  TIP3      OH2            34.3152792640      -11.8383023665      -24.5688462743  TIP3      9376            0.0000000000
     53027      9576  TIP3      H1             34.2685659005      -12.6506453901      -25.1263193047  TIP3      9376            0.0000000000
     53028      9576  TIP3      H2             34.0013836953      -12.1373608370      -23.7026270667  TIP3      9376            0.0000000000
     53029      9577  TIP3      OH2            34.2578127377      -16.0080844967      -31.4422941179  TIP3      9377            0.0000000000
     53030      9577  TIP3      H1             34.1797939971      -16.1726672666      -30.4935304962  TIP3      9377            0.0000000000
     53031      9577  TIP3      H2             33.3211569066      -16.1430973234      -31.7218980275  TIP3      9377            0.0000000000
     53032      9578  TIP3      OH2            34.0124588587      -13.8987002897      -26.2978058862  TIP3      9378            0.0000000000
     53033      9578  TIP3      H1             33.8899085415      -14.8605686754      -26.1611747529  TIP3      9378            0.0000000000
     53034      9578  TIP3      H2             34.9397020621      -13.8900680136      -26.6150680228  TIP3      9378            0.0000000000
     53035      9579  TIP3      OH2            34.2018928034      -16.6448363249      -25.9741146475  TIP3      9379            0.0000000000
     53036      9579  TIP3      H1             34.2643435151      -16.9489440128      -25.0460698815  TIP3      9379            0.0000000000
     53037      9579  TIP3      H2             33.5799276717      -17.2856157264      -26.3584001865  TIP3      9379            0.0000000000
     53038      9580  TIP3      OH2            36.3262180783      -16.9333144846      -29.3009281979  TIP3      9380            0.0000000000
     53039      9580  TIP3      H1             36.7341523828      -17.5742486183      -29.9111860605  TIP3      9380            0.0000000000
     53040      9580  TIP3      H2             36.5263302366      -16.0771655982      -29.7126243543  TIP3      9380            0.0000000000
     53041      9581  TIP3      OH2            23.2796336178       -3.6774954060      -22.1413998618  TIP3      9381            0.0000000000
     53042      9581  TIP3      H1             22.7755573014       -4.4286618318      -21.7587478835  TIP3      9381            0.0000000000
     53043      9581  TIP3      H2             23.2633533044       -3.0434156695      -21.4156402980  TIP3      9381            0.0000000000
     53044      9582  TIP3      OH2            28.7737622342      -17.7575205223      -22.4388778230  TIP3      9382            0.0000000000
     53045      9582  TIP3      H1             28.6901714545      -18.4518709449      -21.7690034529  TIP3      9382            0.0000000000
     53046      9582  TIP3      H2             29.7435623476      -17.7639148413      -22.5694768870  TIP3      9382            0.0000000000
     53047      9583  TIP3      OH2            35.0063959449      -17.8537618053      -23.4789461819  TIP3      9383            0.0000000000
     53048      9583  TIP3      H1             35.5919873667      -18.5564547792      -23.8388444090  TIP3      9383            0.0000000000
     53049      9583  TIP3      H2             35.6269875067      -17.0888469132      -23.5232204122  TIP3      9383            0.0000000000
     53050      9584  TIP3      OH2            25.6165738474      -19.3859649213      -24.2628232215  TIP3      9384            0.0000000000
     53051      9584  TIP3      H1             26.3815452908      -19.1422466378      -24.7982288987  TIP3      9384            0.0000000000
     53052      9584  TIP3      H2             25.0389667763      -18.6262926536      -24.4116901365  TIP3      9384            0.0000000000
     53053      9585  TIP3      OH2            31.3741514548      -18.3255270862      -22.7215647965  TIP3      9385            0.0000000000
     53054      9585  TIP3      H1             31.5921984452      -18.1641673244      -23.6438536979  TIP3      9385            0.0000000000
     53055      9585  TIP3      H2             30.9171218241      -19.1867022932      -22.7225993714  TIP3      9385            0.0000000000
     53056      9586  TIP3      OH2            32.4003635385      -18.5337991577      -26.8617184886  TIP3      9386            0.0000000000
     53057      9586  TIP3      H1             31.5894413702      -17.9950616461      -26.8642378936  TIP3      9386            0.0000000000
     53058      9586  TIP3      H2             32.0740575945      -19.4432098408      -26.6871955940  TIP3      9386            0.0000000000
     53059      9587  TIP3      OH2            21.5224773505      -16.9766064307      -30.1143497903  TIP3      9387            0.0000000000
     53060      9587  TIP3      H1             22.0732196372      -17.5354214389      -30.6779476778  TIP3      9387            0.0000000000
     53061      9587  TIP3      H2             22.0778570152      -16.8777771336      -29.3271728699  TIP3      9387            0.0000000000
     53062      9588  TIP3      OH2            26.8652782959      -16.4853999212      -27.8792934678  TIP3      9388            0.0000000000
     53063      9588  TIP3      H1             27.3038669218      -17.1208122158      -27.3055324179  TIP3      9388            0.0000000000
     53064      9588  TIP3      H2             27.0401994322      -15.6761968182      -27.3439804262  TIP3      9388            0.0000000000
     53065      9589  TIP3      OH2            35.2555181459       -2.2470311700      -26.2338059438  TIP3      9389            0.0000000000
     53066      9589  TIP3      H1             34.9234575175       -2.9793072586      -26.8021141170  TIP3      9389            0.0000000000
     53067      9589  TIP3      H2             35.2007136970       -1.4754047497      -26.8185299871  TIP3      9389            0.0000000000
     53068      9590  TIP3      OH2            21.2896025688       -2.5028366536      -31.1744296380  TIP3      9390            0.0000000000
     53069      9590  TIP3      H1             20.9766881473       -1.8977278324      -30.5049977081  TIP3      9390            0.0000000000
     53070      9590  TIP3      H2             22.1250383472       -2.8618707138      -30.8405778421  TIP3      9390            0.0000000000
     53071      9591  TIP3      OH2            37.3197626885      -12.9138514968      -25.4102048580  TIP3      9391            0.0000000000
     53072      9591  TIP3      H1             37.3250205396      -11.9412965707      -25.3925519382  TIP3      9391            0.0000000000
     53073      9591  TIP3      H2             36.9525312830      -13.0875530768      -26.2968965493  TIP3      9391            0.0000000000
     53074      9592  TIP3      OH2            36.8948904857       -5.1530785679      -20.8039770825  TIP3      9392            0.0000000000
     53075      9592  TIP3      H1             37.8109382313       -4.8325381257      -20.7854415641  TIP3      9392            0.0000000000
     53076      9592  TIP3      H2             36.5139898359       -4.7157077698      -20.0314854332  TIP3      9392            0.0000000000
     53077      9593  TIP3      OH2            36.8182909967      -15.9833704081      -23.8649019517  TIP3      9393            0.0000000000
     53078      9593  TIP3      H1             37.6730730524      -15.5277994309      -23.7050760733  TIP3      9393            0.0000000000
     53079      9593  TIP3      H2             36.9451633747      -16.2564932333      -24.7957881304  TIP3      9393            0.0000000000
     53080      9594  TIP3      OH2            36.8064431948       -1.1830797931      -24.3205569148  TIP3      9394            0.0000000000
     53081      9594  TIP3      H1             36.1299610316       -1.5781333168      -24.9113530212  TIP3      9394            0.0000000000
     53082      9594  TIP3      H2             37.0106487439       -1.9560577362      -23.7655013142  TIP3      9394            0.0000000000
     53083      9595  TIP3      OH2            37.3094050135       -2.9728244987      -22.3525188533  TIP3      9395            0.0000000000
     53084      9595  TIP3      H1             36.7712604222       -3.7408620520      -22.0646500310  TIP3      9395            0.0000000000
     53085      9595  TIP3      H2             36.9801599932       -2.2736377156      -21.7532669123  TIP3      9395            0.0000000000
     53086      9596  TIP3      OH2            38.1270277270       -9.3020696176      -21.1450322102  TIP3      9396            0.0000000000
     53087      9596  TIP3      H1             38.6995549582       -9.5626769811      -21.9088945160  TIP3      9396            0.0000000000
     53088      9596  TIP3      H2             38.4601067273       -9.9350287509      -20.4968263047  TIP3      9396            0.0000000000
     53089      9597  TIP3      OH2            36.5837418995      -12.3013891363      -22.0337354482  TIP3      9397            0.0000000000
     53090      9597  TIP3      H1             37.4763472386      -12.6516980697      -22.1123704883  TIP3      9397            0.0000000000
     53091      9597  TIP3      H2             36.5866600513      -11.9794615207      -21.1333487317  TIP3      9397            0.0000000000
     53092      9598  TIP3      OH2            36.7437294839      -16.7165800709      -26.6883337777  TIP3      9398            0.0000000000
     53093      9598  TIP3      H1             35.7854302256      -16.5862056088      -26.5301972174  TIP3      9398            0.0000000000
     53094      9598  TIP3      H2             36.7216569752      -16.8244968936      -27.6654415490  TIP3      9398            0.0000000000
     53095      9599  TIP3      OH2           -26.3495653977        9.2313324749      -24.3816104936  TIP3      9399            0.0000000000
     53096      9599  TIP3      H1            -26.5135523206       10.1999188852      -24.4233549202  TIP3      9399            0.0000000000
     53097      9599  TIP3      H2            -26.9239495509        8.9124220601      -25.1025685247  TIP3      9399            0.0000000000
     53098      9600  TIP3      OH2           -24.0588135594       11.5492389756      -22.4562610587  TIP3      9400            0.0000000000
     53099      9600  TIP3      H1            -24.5729369819       10.9565420066      -21.8937505655  TIP3      9400            0.0000000000
     53100      9600  TIP3      H2            -23.6742819891       12.1746106021      -21.8216006865  TIP3      9400            0.0000000000
     53101      9601  TIP3      OH2           -37.0384891822        5.7755027859      -26.4645584742  TIP3      9401            0.0000000000
     53102      9601  TIP3      H1            -36.8554003838        6.5815917014      -25.9595763532  TIP3      9401            0.0000000000
     53103      9601  TIP3      H2            -37.9527619893        5.5916696778      -26.1752480360  TIP3      9401            0.0000000000
     53104      9602  TIP3      OH2           -37.0693847069        8.5409357953      -23.4751303097  TIP3      9402            0.0000000000
     53105      9602  TIP3      H1            -36.8321961502        7.6558866785      -23.1884282660  TIP3      9402            0.0000000000
     53106      9602  TIP3      H2            -36.2172748072        8.9925974288      -23.5037681268  TIP3      9402            0.0000000000
     53107      9603  TIP3      OH2           -26.5199732439       16.6443082900      -22.4378438322  TIP3      9403            0.0000000000
     53108      9603  TIP3      H1            -25.8812568262       16.1176692090      -22.9569846658  TIP3      9403            0.0000000000
     53109      9603  TIP3      H2            -26.6172144216       16.1289031669      -21.6280889487  TIP3      9403            0.0000000000
     53110      9604  TIP3      OH2           -32.7135794857        3.5121355712      -22.6206534843  TIP3      9404            0.0000000000
     53111      9604  TIP3      H1            -32.3901646910        4.2853661049      -23.1273553660  TIP3      9404            0.0000000000
     53112      9604  TIP3      H2            -33.2945835183        3.0945636687      -23.2912519736  TIP3      9404            0.0000000000
     53113      9605  TIP3      OH2           -25.0657556388        3.5520791251      -24.5757736957  TIP3      9405            0.0000000000
     53114      9605  TIP3      H1            -24.7047658155        3.2990124288      -23.6987469681  TIP3      9405            0.0000000000
     53115      9605  TIP3      H2            -24.7597402048        4.4722344733      -24.6437316006  TIP3      9405            0.0000000000
     53116      9606  TIP3      OH2           -31.2364848372        7.4229553535      -22.7097196736  TIP3      9406            0.0000000000
     53117      9606  TIP3      H1            -30.6626637184        6.8976169824      -22.1316594599  TIP3      9406            0.0000000000
     53118      9606  TIP3      H2            -31.3939777402        6.8076446354      -23.4425482359  TIP3      9406            0.0000000000
     53119      9607  TIP3      OH2           -26.7487205829       11.6518228626      -25.4162498854  TIP3      9407            0.0000000000
     53120      9607  TIP3      H1            -26.8905955367       11.7064994193      -26.3738888432  TIP3      9407            0.0000000000
     53121      9607  TIP3      H2            -27.1956435108       12.4864514695      -25.1402801443  TIP3      9407            0.0000000000
     53122      9608  TIP3      OH2           -23.4520898467        3.2213546033      -22.4504775270  TIP3      9408            0.0000000000
     53123      9608  TIP3      H1            -23.7838418908        2.8514827706      -21.6016916545  TIP3      9408            0.0000000000
     53124      9608  TIP3      H2            -22.5753741082        2.8077077854      -22.4967960628  TIP3      9408            0.0000000000
     53125      9609  TIP3      OH2           -37.1917664550       11.5968150157      -27.1099464479  TIP3      9409            0.0000000000
     53126      9609  TIP3      H1            -37.1336148537       12.2287743515      -27.8659630268  TIP3      9409            0.0000000000
     53127      9609  TIP3      H2            -36.7237247668       12.0723050360      -26.4126750822  TIP3      9409            0.0000000000
     53128      9610  TIP3      OH2           -24.9764762463       15.0673118714      -24.0849583498  TIP3      9410            0.0000000000
     53129      9610  TIP3      H1            -24.4870961686       14.2409570138      -24.2705359774  TIP3      9410            0.0000000000
     53130      9610  TIP3      H2            -24.2446937875       15.7103675487      -23.9854152194  TIP3      9410            0.0000000000
     53131      9611  TIP3      OH2           -23.4035314975       12.9099427791      -24.8342624875  TIP3      9411            0.0000000000
     53132      9611  TIP3      H1            -23.9640781104       12.3837302187      -25.4224516986  TIP3      9411            0.0000000000
     53133      9611  TIP3      H2            -23.4902735357       12.3608127282      -24.0247324005  TIP3      9411            0.0000000000
     53134      9612  TIP3      OH2           -27.6596137273        8.5251774597      -26.7941030160  TIP3      9412            0.0000000000
     53135      9612  TIP3      H1            -28.1362178669        9.3609989267      -26.9877668063  TIP3      9412            0.0000000000
     53136      9612  TIP3      H2            -26.8586605675        8.6031851012      -27.3520401870  TIP3      9412            0.0000000000
     53137      9613  TIP3      OH2           -27.4450889828        7.5207634451      -30.1615714144  TIP3      9413            0.0000000000
     53138      9613  TIP3      H1            -27.0150580523        7.8367618175      -29.3462887509  TIP3      9413            0.0000000000
     53139      9613  TIP3      H2            -27.1609955818        6.5903028800      -30.1767012397  TIP3      9413            0.0000000000
     53140      9614  TIP3      OH2           -23.7598807454        8.8115017810      -25.6926304507  TIP3      9414            0.0000000000
     53141      9614  TIP3      H1            -24.6042622759        8.9131560671      -25.2098738375  TIP3      9414            0.0000000000
     53142      9614  TIP3      H2            -23.1874635734        8.4308863666      -24.9957464753  TIP3      9414            0.0000000000
     53143      9615  TIP3      OH2           -32.6657517569        9.5829063943      -23.7056448827  TIP3      9415            0.0000000000
     53144      9615  TIP3      H1            -32.9688656956        9.0668372327      -24.4846617182  TIP3      9415            0.0000000000
     53145      9615  TIP3      H2            -32.0836337137        8.9297447271      -23.2524523301  TIP3      9415            0.0000000000
     53146      9616  TIP3      OH2           -25.3325394937        8.3585873126      -28.1927036176  TIP3      9416            0.0000000000
     53147      9616  TIP3      H1            -24.6621993628        8.6762300808      -27.5502971847  TIP3      9416            0.0000000000
     53148      9616  TIP3      H2            -24.8935528577        8.6496103194      -29.0322739286  TIP3      9416            0.0000000000
     53149      9617  TIP3      OH2           -27.8058681296       14.1329193702      -25.1794954674  TIP3      9417            0.0000000000
     53150      9617  TIP3      H1            -27.5043966908       14.5030352055      -24.3402901287  TIP3      9417            0.0000000000
     53151      9617  TIP3      H2            -28.1526957198       14.9164265233      -25.6216830804  TIP3      9417            0.0000000000
     53152      9618  TIP3      OH2           -21.5750096862       -0.4667703247      -28.1527943844  TIP3      9418            0.0000000000
     53153      9618  TIP3      H1            -22.3985086040       -0.3155781122      -27.6369195495  TIP3      9418            0.0000000000
     53154      9618  TIP3      H2            -21.2661988481        0.4510691341      -28.2780107711  TIP3      9418            0.0000000000
     53155      9619  TIP3      OH2           -34.0971781877        8.3172420130      -25.8216261532  TIP3      9419            0.0000000000
     53156      9619  TIP3      H1            -34.2553921828        9.0855360665      -26.4102803207  TIP3      9419            0.0000000000
     53157      9619  TIP3      H2            -33.9378375835        7.5800355670      -26.4264442980  TIP3      9419            0.0000000000
     53158      9620  TIP3      OH2           -20.5299975938       14.0936859203      -30.0671914985  TIP3      9420            0.0000000000
     53159      9620  TIP3      H1            -20.2429061458       14.9843647869      -29.7778293466  TIP3      9420            0.0000000000
     53160      9620  TIP3      H2            -19.7032746361       13.6061590469      -29.8658360342  TIP3      9420            0.0000000000
     53161      9621  TIP3      OH2           -27.9139893148       17.4113076151      -26.4601597996  TIP3      9421            0.0000000000
     53162      9621  TIP3      H1            -28.0544958862       17.4603831068      -27.4263654196  TIP3      9421            0.0000000000
     53163      9621  TIP3      H2            -28.0425093571       18.3498969205      -26.1965117743  TIP3      9421            0.0000000000
     53164      9622  TIP3      OH2           -34.2837476722       16.0859662048      -24.4521660363  TIP3      9422            0.0000000000
     53165      9622  TIP3      H1            -34.1599999004       15.7660126144      -23.5212442179  TIP3      9422            0.0000000000
     53166      9622  TIP3      H2            -35.2011927238       15.8234737240      -24.6354870875  TIP3      9422            0.0000000000
     53167      9623  TIP3      OH2           -24.7887687091       16.8487620622      -29.6291145956  TIP3      9423            0.0000000000
     53168      9623  TIP3      H1            -24.3802976864       16.0514790459      -30.0513385658  TIP3      9423            0.0000000000
     53169      9623  TIP3      H2            -24.8527927010       16.6372426641      -28.6823143410  TIP3      9423            0.0000000000
     53170      9624  TIP3      OH2           -25.3689263481       16.6968483433      -26.8331735595  TIP3      9424            0.0000000000
     53171      9624  TIP3      H1            -26.3211826180       16.8772371850      -26.6414320847  TIP3      9424            0.0000000000
     53172      9624  TIP3      H2            -25.2195704527       15.9674247210      -26.2060605576  TIP3      9424            0.0000000000
     53173      9625  TIP3      OH2           -23.7988234460        9.3259226614      -30.0833141663  TIP3      9425            0.0000000000
     53174      9625  TIP3      H1            -24.0256503405        9.4273877458      -31.0326254221  TIP3      9425            0.0000000000
     53175      9625  TIP3      H2            -22.8388469532        9.4822757169      -30.0992320952  TIP3      9425            0.0000000000
     53176      9626  TIP3      OH2           -28.0155038024        3.0039444455      -30.0257289023  TIP3      9426            0.0000000000
     53177      9626  TIP3      H1            -28.5173014092        3.0230774105      -29.1858528150  TIP3      9426            0.0000000000
     53178      9626  TIP3      H2            -28.5092811253        2.2820915854      -30.4472511243  TIP3      9426            0.0000000000
     53179      9627  TIP3      OH2           -32.0679185919        5.2973393017      -24.4561237656  TIP3      9427            0.0000000000
     53180      9627  TIP3      H1            -33.0317481495        5.2674371011      -24.6568669575  TIP3      9427            0.0000000000
     53181      9627  TIP3      H2            -31.6969988068        5.1664788324      -25.3586786346  TIP3      9427            0.0000000000
     53182      9628  TIP3      OH2           -26.6601232327        6.3862930075      -25.6502637097  TIP3      9428            0.0000000000
     53183      9628  TIP3      H1            -27.0410191859        7.1734775390      -26.1020387717  TIP3      9428            0.0000000000
     53184      9628  TIP3      H2            -26.0404099717        6.0840563578      -26.3376481021  TIP3      9428            0.0000000000
     53185      9629  TIP3      OH2           -24.9841582279        6.1972337913      -23.3292865495  TIP3      9429            0.0000000000
     53186      9629  TIP3      H1            -25.5459209578        6.9473333203      -23.5873919006  TIP3      9429            0.0000000000
     53187      9629  TIP3      H2            -25.5963046778        5.4556093278      -23.4058099761  TIP3      9429            0.0000000000
     53188      9630  TIP3      OH2           -31.5611413154        3.2033009731      -30.6805026760  TIP3      9430            0.0000000000
     53189      9630  TIP3      H1            -32.2105332714        2.7668889054      -30.1024424493  TIP3      9430            0.0000000000
     53190      9630  TIP3      H2            -32.1606927175        3.8103774884      -31.1839722543  TIP3      9430            0.0000000000
     53191      9631  TIP3      OH2           -37.1550500064        2.5935484532      -23.0991007613  TIP3      9431            0.0000000000
     53192      9631  TIP3      H1            -37.8930744277        1.9827425283      -22.8875688937  TIP3      9431            0.0000000000
     53193      9631  TIP3      H2            -37.1478952789        2.6482817973      -24.0643052388  TIP3      9431            0.0000000000
     53194      9632  TIP3      OH2           -37.1104417110        3.8168666558      -28.5346536605  TIP3      9432            0.0000000000
     53195      9632  TIP3      H1            -36.5761677012        4.3993199271      -29.1298188638  TIP3      9432            0.0000000000
     53196      9632  TIP3      H2            -37.5520356448        4.4904073005      -27.9854818619  TIP3      9432            0.0000000000
     53197      9633  TIP3      OH2           -29.9182032755        3.1118296312      -23.4937917778  TIP3      9433            0.0000000000
     53198      9633  TIP3      H1            -30.8666270424        3.2920032818      -23.4482211336  TIP3      9433            0.0000000000
     53199      9633  TIP3      H2            -29.6329180942        3.5714958487      -22.6771904498  TIP3      9433            0.0000000000
     53200      9634  TIP3      OH2           -34.7048703413        5.0358151612      -25.1308411874  TIP3      9434            0.0000000000
     53201      9634  TIP3      H1            -35.5524334155        5.2943627478      -25.5435659841  TIP3      9434            0.0000000000
     53202      9634  TIP3      H2            -34.8671832715        4.0908117587      -24.9301747426  TIP3      9434            0.0000000000
     53203      9635  TIP3      OH2           -31.2871558008        4.9159345202      -27.1789490466  TIP3      9435            0.0000000000
     53204      9635  TIP3      H1            -30.5536929135        4.5897169874      -27.7174063600  TIP3      9435            0.0000000000
     53205      9635  TIP3      H2            -31.8045306383        5.3927959264      -27.8774098455  TIP3      9435            0.0000000000
     53206      9636  TIP3      OH2           -25.4295119133        3.0439489523      -20.4862554159  TIP3      9436            0.0000000000
     53207      9636  TIP3      H1            -25.9038915499        3.5925779636      -19.8207010250  TIP3      9436            0.0000000000
     53208      9636  TIP3      H2            -25.9120367286        2.2119451191      -20.4127323900  TIP3      9436            0.0000000000
     53209      9637  TIP3      OH2           -32.4522436475        5.9208191860      -29.3447329737  TIP3      9437            0.0000000000
     53210      9637  TIP3      H1            -33.1906177537        6.0011511591      -29.9606459584  TIP3      9437            0.0000000000
     53211      9637  TIP3      H2            -31.8391202335        6.5367073437      -29.8032443707  TIP3      9437            0.0000000000
     53212      9638  TIP3      OH2           -28.9367204795        5.2354351242      -21.6847100279  TIP3      9438            0.0000000000
     53213      9638  TIP3      H1            -28.2469728956        5.1985114036      -22.3587679452  TIP3      9438            0.0000000000
     53214      9638  TIP3      H2            -28.3802065948        5.2179654083      -20.8799568099  TIP3      9438            0.0000000000
     53215      9639  TIP3      OH2           -34.2563358618        2.4320967889      -24.6675967347  TIP3      9439            0.0000000000
     53216      9639  TIP3      H1            -34.8237871687        1.6740621028      -24.3875144868  TIP3      9439            0.0000000000
     53217      9639  TIP3      H2            -33.8164304522        2.0390861240      -25.4460965295  TIP3      9439            0.0000000000
     53218      9640  TIP3      OH2           -29.3432933130       10.6076336953      -27.2415031025  TIP3      9440            0.0000000000
     53219      9640  TIP3      H1            -30.0674285157       10.1180603861      -27.7096563530  TIP3      9440            0.0000000000
     53220      9640  TIP3      H2            -29.8105970830       10.8406151270      -26.3992529846  TIP3      9440            0.0000000000
     53221      9641  TIP3      OH2           -25.5782027380        3.3885981231      -29.0849063328  TIP3      9441            0.0000000000
     53222      9641  TIP3      H1            -26.4730292732        3.3370184732      -29.4807167122  TIP3      9441            0.0000000000
     53223      9641  TIP3      H2            -25.5316455801        4.3405858762      -28.8499915775  TIP3      9441            0.0000000000
     53224      9642  TIP3      OH2           -25.1134625042        5.6808258932      -27.8200401507  TIP3      9442            0.0000000000
     53225      9642  TIP3      H1            -24.3900500058        5.3631278129      -27.2420888357  TIP3      9442            0.0000000000
     53226      9642  TIP3      H2            -24.6863662725        6.4430019695      -28.2440506890  TIP3      9442            0.0000000000
     53227      9643  TIP3      OH2           -34.5174062747       10.0718467006      -21.8061664188  TIP3      9443            0.0000000000
     53228      9643  TIP3      H1            -33.9431553255       10.0735430090      -22.6013496180  TIP3      9443            0.0000000000
     53229      9643  TIP3      H2            -33.9425288205        9.5931328913      -21.1985793367  TIP3      9443            0.0000000000
     53230      9644  TIP3      OH2           -27.4556828224       11.9998970656      -28.5177382067  TIP3      9444            0.0000000000
     53231      9644  TIP3      H1            -27.8284672598       12.8774552831      -28.2916142228  TIP3      9444            0.0000000000
     53232      9644  TIP3      H2            -28.1139869471       11.3928363222      -28.1073094776  TIP3      9444            0.0000000000
     53233      9645  TIP3      OH2           -20.2099384432        5.3999539915      -28.0120764782  TIP3      9445            0.0000000000
     53234      9645  TIP3      H1            -20.7277942123        5.3108835522      -28.8464786834  TIP3      9445            0.0000000000
     53235      9645  TIP3      H2            -20.0372065981        6.3622030830      -28.0077553890  TIP3      9445            0.0000000000
     53236      9646  TIP3      OH2           -21.8975102380       14.2315291325      -27.4716551310  TIP3      9446            0.0000000000
     53237      9646  TIP3      H1            -22.4329429336       13.5608069981      -27.0210213647  TIP3      9446            0.0000000000
     53238      9646  TIP3      H2            -21.5581111487       13.7758035155      -28.2557704322  TIP3      9446            0.0000000000
     53239      9647  TIP3      OH2           -31.9563816599       13.6213402263      -24.2876724185  TIP3      9447            0.0000000000
     53240      9647  TIP3      H1            -31.5963369181       14.4628773398      -24.6416193283  TIP3      9447            0.0000000000
     53241      9647  TIP3      H2            -32.8394971407       13.6496341362      -24.6574014303  TIP3      9447            0.0000000000
     53242      9648  TIP3      OH2           -36.8567103269        8.7866735939      -29.9533960770  TIP3      9448            0.0000000000
     53243      9648  TIP3      H1            -35.9007117616        8.9434375088      -29.8736608771  TIP3      9448            0.0000000000
     53244      9648  TIP3      H2            -37.0674634180        8.4256836911      -29.0811669206  TIP3      9448            0.0000000000
     53245      9649  TIP3      OH2           -30.6863327325       11.1244119671      -24.9111179004  TIP3      9449            0.0000000000
     53246      9649  TIP3      H1            -30.9711851023       12.0255927874      -24.6768374829  TIP3      9449            0.0000000000
     53247      9649  TIP3      H2            -31.1930751121       10.6151821435      -24.2435374418  TIP3      9449            0.0000000000
     53248      9650  TIP3      OH2           -31.7804374062       16.0237961168      -25.5313765174  TIP3      9450            0.0000000000
     53249      9650  TIP3      H1            -32.7232150514       15.9967927225      -25.2476072399  TIP3      9450            0.0000000000
     53250      9650  TIP3      H2            -31.4860521098       16.8210151199      -25.0540290541  TIP3      9450            0.0000000000
     53251      9651  TIP3      OH2           -24.1071124437       12.4612656771      -29.5692913617  TIP3      9451            0.0000000000
     53252      9651  TIP3      H1            -24.1300515479       12.0653459093      -28.6665230866  TIP3      9451            0.0000000000
     53253      9651  TIP3      H2            -24.9740441939       12.1698495198      -29.8768838789  TIP3      9451            0.0000000000
     53254      9652  TIP3      OH2           -19.8539989133       16.6803359012      -29.2054779921  TIP3      9452            0.0000000000
     53255      9652  TIP3      H1            -19.2480941034       17.2995017988      -29.6402671022  TIP3      9452            0.0000000000
     53256      9652  TIP3      H2            -20.5099044102       17.3041711962      -28.8259389165  TIP3      9452            0.0000000000
     53257      9653  TIP3      OH2           -23.4180605753       11.0361744970      -27.2200256417  TIP3      9453            0.0000000000
     53258      9653  TIP3      H1            -23.5976937507       10.1998887469      -26.7388758503  TIP3      9453            0.0000000000
     53259      9653  TIP3      H2            -22.4405019752       11.0414418586      -27.2549239409  TIP3      9453            0.0000000000
     53260      9654  TIP3      OH2           -30.2846440425       13.7592653818      -31.2069797800  TIP3      9454            0.0000000000
     53261      9654  TIP3      H1            -30.4190872382       13.3293576794      -32.0669137716  TIP3      9454            0.0000000000
     53262      9654  TIP3      H2            -30.8380984878       13.1994634289      -30.6356071308  TIP3      9454            0.0000000000
     53263      9655  TIP3      OH2           -31.5173878413       12.8431729569      -28.6204451506  TIP3      9455            0.0000000000
     53264      9655  TIP3      H1            -30.8346689407       12.4146273734      -28.0799051134  TIP3      9455            0.0000000000
     53265      9655  TIP3      H2            -31.3696608964       13.7974923091      -28.3971199696  TIP3      9455            0.0000000000
     53266      9656  TIP3      OH2           -34.7799071971       10.3194991774      -27.7688194171  TIP3      9456            0.0000000000
     53267      9656  TIP3      H1            -35.6549359656       10.7467858555      -27.6711115965  TIP3      9456            0.0000000000
     53268      9656  TIP3      H2            -34.3633730092       10.8103317303      -28.4921972324  TIP3      9456            0.0000000000
     53269      9657  TIP3      OH2           -26.1923354603        2.4527862224      -26.6098378231  TIP3      9457            0.0000000000
     53270      9657  TIP3      H1            -25.9111922624        2.9769030574      -27.3828594784  TIP3      9457            0.0000000000
     53271      9657  TIP3      H2            -25.8727122172        3.0004865007      -25.8589941517  TIP3      9457            0.0000000000
     53272      9658  TIP3      OH2           -28.3402803860       14.7795578588      -28.0586545725  TIP3      9458            0.0000000000
     53273      9658  TIP3      H1            -29.2056972519       15.0872034159      -27.7163775190  TIP3      9458            0.0000000000
     53274      9658  TIP3      H2            -27.9895787569       15.6035484010      -28.4409607575  TIP3      9458            0.0000000000
     53275      9659  TIP3      OH2           -28.8416183841        4.0818474181      -26.0522902862  TIP3      9459            0.0000000000
     53276      9659  TIP3      H1            -28.4222741029        4.9508359003      -25.9754303768  TIP3      9459            0.0000000000
     53277      9659  TIP3      H2            -29.2727440274        3.9804041393      -25.1876020517  TIP3      9459            0.0000000000
     53278      9660  TIP3      OH2           -28.1183752531        1.0176496728      -25.5605550499  TIP3      9460            0.0000000000
     53279      9660  TIP3      H1            -28.4496400394        1.6247007369      -24.8861481310  TIP3      9460            0.0000000000
     53280      9660  TIP3      H2            -27.3156570750        1.5142220001      -25.8677262229  TIP3      9460            0.0000000000
     53281      9661  TIP3      OH2           -31.1047387997       15.4105382954      -28.0927163856  TIP3      9461            0.0000000000
     53282      9661  TIP3      H1            -30.9874312718       16.2452489210      -28.6092457660  TIP3      9461            0.0000000000
     53283      9661  TIP3      H2            -31.4348515658       15.8093512165      -27.2587853967  TIP3      9461            0.0000000000
     53284      9662  TIP3      OH2           -32.6781763385        2.2878488062      -28.2672383737  TIP3      9462            0.0000000000
     53285      9662  TIP3      H1            -32.6839442916        3.1516932155      -27.8251492025  TIP3      9462            0.0000000000
     53286      9662  TIP3      H2            -31.7323684885        2.0715786911      -28.2151736416  TIP3      9462            0.0000000000
     53287      9663  TIP3      OH2           -34.1327502915       12.8855529796      -29.5028661602  TIP3      9463            0.0000000000
     53288      9663  TIP3      H1            -33.2411259282       12.9179339628      -29.0773851160  TIP3      9463            0.0000000000
     53289      9663  TIP3      H2            -33.9025372903       12.2569233175      -30.2158116808  TIP3      9463            0.0000000000
     53290      9664  TIP3      OH2           -35.9965696718        5.7142115232      -30.1532284256  TIP3      9464            0.0000000000
     53291      9664  TIP3      H1            -35.3784018483        6.4550567791      -30.0328481389  TIP3      9464            0.0000000000
     53292      9664  TIP3      H2            -36.4281912990        5.9293040359      -30.9954387006  TIP3      9464            0.0000000000
     53293      9665  TIP3      OH2           -34.8847712497        0.1340392532      -21.5743833691  TIP3      9465            0.0000000000
     53294      9665  TIP3      H1            -34.8804189420       -0.0042647386      -22.5412390810  TIP3      9465            0.0000000000
     53295      9665  TIP3      H2            -35.7316020847        0.6012575429      -21.4815475110  TIP3      9465            0.0000000000
     53296      9666  TIP3      OH2           -36.2974646041       14.1762162383      -25.3548062952  TIP3      9466            0.0000000000
     53297      9666  TIP3      H1            -37.1890247119       14.3973074903      -25.6408662250  TIP3      9466            0.0000000000
     53298      9666  TIP3      H2            -35.8181281055       14.5800980363      -26.1047496462  TIP3      9466            0.0000000000
     53299      9667  TIP3      OH2           -28.1151019890       15.6787278782      -31.2051799036  TIP3      9467            0.0000000000
     53300      9667  TIP3      H1            -28.6068759758       14.8658923787      -30.9741888763  TIP3      9467            0.0000000000
     53301      9667  TIP3      H2            -27.3081845716       15.2965944032      -31.6212779056  TIP3      9467            0.0000000000
     53302      9668  TIP3      OH2           -23.6573821761       14.8862659078      -31.1589246303  TIP3      9468            0.0000000000
     53303      9668  TIP3      H1            -23.5179557574       14.1542588187      -30.5116298867  TIP3      9468            0.0000000000
     53304      9668  TIP3      H2            -22.7673368410       14.9770548800      -31.5551363421  TIP3      9468            0.0000000000
     53305      9669  TIP3      OH2           -32.7925399040       11.1582516317      -31.1284775734  TIP3      9469            0.0000000000
     53306      9669  TIP3      H1            -33.0943640030       10.2365121029      -30.9405805515  TIP3      9469            0.0000000000
     53307      9669  TIP3      H2            -31.8544384334       11.0398843981      -31.3750759609  TIP3      9469            0.0000000000
     53308      9670  TIP3      OH2           -27.0242068956       12.3077183539      -31.3367578443  TIP3      9470            0.0000000000
     53309      9670  TIP3      H1            -27.3466549428       12.1640528551      -30.4243163907  TIP3      9470            0.0000000000
     53310      9670  TIP3      H2            -27.0640651162       11.3772280099      -31.6742681859  TIP3      9470            0.0000000000
     53311      9671  TIP3      OH2           -31.2706932561        9.1018707435      -28.4235885913  TIP3      9471            0.0000000000
     53312      9671  TIP3      H1            -32.0908618531        8.6713964207      -28.1393885355  TIP3      9471            0.0000000000
     53313      9671  TIP3      H2            -31.0674125962        8.5908597946      -29.2317808341  TIP3      9471            0.0000000000
     53314      9672  TIP3      OH2           -30.3272815923        7.3702455632      -30.4918328877  TIP3      9472            0.0000000000
     53315      9672  TIP3      H1            -30.4866563876        7.4743697947      -31.4479480425  TIP3      9472            0.0000000000
     53316      9672  TIP3      H2            -29.3540409083        7.3922824791      -30.4126995626  TIP3      9472            0.0000000000
     53317      9673  TIP3      OH2           -21.0029400037        9.4980436386      -31.0640379816  TIP3      9473            0.0000000000
     53318      9673  TIP3      H1            -21.2741123503        9.2129219629      -31.9692209451  TIP3      9473            0.0000000000
     53319      9673  TIP3      H2            -21.1322176182       10.4859981682      -31.1634095656  TIP3      9473            0.0000000000
     53320      9674  TIP3      OH2           -30.4036409102       17.7438982047      -28.9638481177  TIP3      9474            0.0000000000
     53321      9674  TIP3      H1            -29.4305530080       17.8195573834      -29.0523649931  TIP3      9474            0.0000000000
     53322      9674  TIP3      H2            -30.6910487816       18.3441558599      -29.6815540179  TIP3      9474            0.0000000000
     53323      9675  TIP3      OH2           -36.8829849962       12.9679674442      -29.4405662835  TIP3      9475            0.0000000000
     53324      9675  TIP3      H1            -35.9810249252       13.3509966412      -29.5276220990  TIP3      9475            0.0000000000
     53325      9675  TIP3      H2            -36.9106407255       12.4430022083      -30.2516576945  TIP3      9475            0.0000000000
     53326      9676  TIP3      OH2           -37.8015820581       17.8122769863      -25.5001031048  TIP3      9476            0.0000000000
     53327      9676  TIP3      H1            -38.5757123491       18.3608724280      -25.2945877574  TIP3      9476            0.0000000000
     53328      9676  TIP3      H2            -37.6848860957       17.3045479365      -24.6768468042  TIP3      9476            0.0000000000
     53329      9677  TIP3      OH2           -36.9735694592       16.2342589402      -23.3637266837  TIP3      9477            0.0000000000
     53330      9677  TIP3      H1            -36.8076930074       15.3317350403      -23.6844851302  TIP3      9477            0.0000000000
     53331      9677  TIP3      H2            -36.5827474616       16.2415942429      -22.4607916555  TIP3      9477            0.0000000000
     53332      9678  TIP3      OH2           -20.5673443193       10.5865536367      -27.4454117274  TIP3      9478            0.0000000000
     53333      9678  TIP3      H1            -19.6689054234       10.9493824196      -27.3232242339  TIP3      9478            0.0000000000
     53334      9678  TIP3      H2            -20.6035868235        9.9638908077      -26.6898754712  TIP3      9478            0.0000000000
     53335      9679  TIP3      OH2           -20.4443118099        8.7001262278      -25.1596540383  TIP3      9479            0.0000000000
     53336      9679  TIP3      H1            -20.9860227025        8.2473745148      -24.4924415203  TIP3      9479            0.0000000000
     53337      9679  TIP3      H2            -19.6225373560        8.8163985118      -24.6264047624  TIP3      9479            0.0000000000
     53338      9680  TIP3      OH2           -19.6600535021        8.3910455919      -28.9974715035  TIP3      9480            0.0000000000
     53339      9680  TIP3      H1            -20.2415162202        8.5179889961      -29.7837906666  TIP3      9480            0.0000000000
     53340      9680  TIP3      H2            -19.9436600185        9.1584638396      -28.4596905953  TIP3      9480            0.0000000000
     53341      9681  TIP3      OH2           -21.7432747839        5.5351076239      -30.4187515049  TIP3      9481            0.0000000000
     53342      9681  TIP3      H1            -21.5288462299        6.1238694259      -31.1559802637  TIP3      9481            0.0000000000
     53343      9681  TIP3      H2            -21.9869778185        4.7238379690      -30.9015188932  TIP3      9481            0.0000000000
     53344      9682  TIP3      OH2           -22.5764039536        6.9148496866      -24.1142281063  TIP3      9482            0.0000000000
     53345      9682  TIP3      H1            -22.5683880220        6.5464688068      -25.0168264873  TIP3      9482            0.0000000000
     53346      9682  TIP3      H2            -23.4600153815        6.5673199461      -23.8460648623  TIP3      9482            0.0000000000
     53347      9683  TIP3      OH2           -36.8581808407        9.2289710763      -20.5735608010  TIP3      9483            0.0000000000
     53348      9683  TIP3      H1            -36.5108523994        9.1535124470      -21.4701810925  TIP3      9483            0.0000000000
     53349      9683  TIP3      H2            -36.0294337269        9.1228095223      -20.0870246185  TIP3      9483            0.0000000000
     53350      9684  TIP3      OH2           -22.1598994716        2.9230185892      -31.3640028679  TIP3      9484            0.0000000000
     53351      9684  TIP3      H1            -21.7828266694        2.5716946976      -30.5313583198  TIP3      9484            0.0000000000
     53352      9684  TIP3      H2            -23.1065087764        2.7507685914      -31.2874562845  TIP3      9484            0.0000000000
     53353      9685  TIP3      OH2           -22.9356491944        4.8950455857      -26.1817113332  TIP3      9485            0.0000000000
     53354      9685  TIP3      H1            -22.8571462537        3.9478915522      -25.9653815474  TIP3      9485            0.0000000000
     53355      9685  TIP3      H2            -22.0434180997        5.0420973113      -26.5308599611  TIP3      9485            0.0000000000
     53356      9686  TIP3      OH2           -22.0182162469        2.0614669407      -26.3640984907  TIP3      9486            0.0000000000
     53357      9686  TIP3      H1            -21.7542036528        1.9260340792      -25.4423257624  TIP3      9486            0.0000000000
     53358      9686  TIP3      H2            -22.6863435100        1.3507956737      -26.4578265056  TIP3      9486            0.0000000000
     53359      9687  TIP3      OH2           -38.0568508165        5.6513096719      -20.7595990446  TIP3      9487            0.0000000000
     53360      9687  TIP3      H1            -38.6412656376        5.8715348885      -21.4955591380  TIP3      9487            0.0000000000
     53361      9687  TIP3      H2            -38.6597832741        5.9552534294      -20.0333994188  TIP3      9487            0.0000000000
     53362      9688  TIP3      OH2           -20.2600098903        1.7881646050      -29.4831514242  TIP3      9488            0.0000000000
     53363      9688  TIP3      H1            -19.8903125250        1.2455613655      -30.2140762937  TIP3      9488            0.0000000000
     53364      9688  TIP3      H2            -19.4489758916        2.0478427747      -29.0051452749  TIP3      9488            0.0000000000
     53365      9689  TIP3      OH2           -37.2434736887        2.0382030690      -26.5895666741  TIP3      9489            0.0000000000
     53366      9689  TIP3      H1            -38.2206282060        1.9961459393      -26.5504573026  TIP3      9489            0.0000000000
     53367      9689  TIP3      H2            -37.1392138017        2.6299101919      -27.3572389288  TIP3      9489            0.0000000000
     53368      9690  TIP3      OH2           -22.8885584804       16.9209110688      -23.9334230657  TIP3      9490            0.0000000000
     53369      9690  TIP3      H1            -22.4719409001       16.4776409329      -24.6965775588  TIP3      9490            0.0000000000
     53370      9690  TIP3      H2            -22.5463317915       17.8153283284      -24.0349766124  TIP3      9490            0.0000000000
     53371      9691  TIP3      OH2           -35.9761873255       16.4191579107      -20.8346234820  TIP3      9491            0.0000000000
     53372      9691  TIP3      H1            -36.0075806852       16.2551595691      -19.8725012699  TIP3      9491            0.0000000000
     53373      9691  TIP3      H2            -35.0798165496       16.0636220443      -21.0379018192  TIP3      9491            0.0000000000
     53374      9692  TIP3      OH2           -33.7703319038       15.2741349672      -21.9563609352  TIP3      9492            0.0000000000
     53375      9692  TIP3      H1            -33.5578078207       14.3248115258      -21.8520195584  TIP3      9492            0.0000000000
     53376      9692  TIP3      H2            -32.9433108092       15.5902685318      -21.5547529411  TIP3      9492            0.0000000000
     53377      9693  TIP3      OH2           -34.9766848618       -0.0666038119      -24.3466563852  TIP3      9493            0.0000000000
     53378      9693  TIP3      H1            -35.7157549765       -0.1058441814      -24.9961777292  TIP3      9493            0.0000000000
     53379      9693  TIP3      H2            -34.7289225591       -1.0071899535      -24.3168644428  TIP3      9493            0.0000000000
     53380      9694  TIP3      OH2           -36.4371406638        0.0196149594      -28.4042179858  TIP3      9494            0.0000000000
     53381      9694  TIP3      H1            -36.2026436530        0.3995428943      -29.2739162404  TIP3      9494            0.0000000000
     53382      9694  TIP3      H2            -36.7603477567        0.8175456811      -27.9375145006  TIP3      9494            0.0000000000
     53383      9695  TIP3      OH2           -31.1382949560        0.0156906998      -24.2150183185  TIP3      9495            0.0000000000
     53384      9695  TIP3      H1            -30.6299337037       -0.2143159590      -24.9967337380  TIP3      9495            0.0000000000
     53385      9695  TIP3      H2            -30.9342496165        0.9543116487      -24.0889373768  TIP3      9495            0.0000000000
     53386      9696  TIP3      OH2           -25.9193643281        0.2592065776      -22.7126452825  TIP3      9496            0.0000000000
     53387      9696  TIP3      H1            -25.2229798759        0.3376954440      -23.3698702453  TIP3      9496            0.0000000000
     53388      9696  TIP3      H2            -26.3424250684       -0.5973223425      -22.8874156760  TIP3      9496            0.0000000000
     53389      9697  TIP3      OH2           -23.7633953649        0.0244158892      -26.7557582578  TIP3      9497            0.0000000000
     53390      9697  TIP3      H1            -24.4163351611        0.5255422245      -27.2723904564  TIP3      9497            0.0000000000
     53391      9697  TIP3      H2            -24.2476499515       -0.8205780639      -26.6117600667  TIP3      9497            0.0000000000
     53392      9698  TIP3      OH2           -36.4921649014       16.0691572869      -27.3707982420  TIP3      9498            0.0000000000
     53393      9698  TIP3      H1            -37.3771441159       15.9908640252      -27.7692374663  TIP3      9498            0.0000000000
     53394      9698  TIP3      H2            -36.3186325521       17.0073488086      -27.6232232136  TIP3      9498            0.0000000000
     53395      9699  TIP3      OH2           -35.1441638819        1.6025544092      -30.1086286122  TIP3      9499            0.0000000000
     53396      9699  TIP3      H1            -34.3632720897        1.1257669470      -30.4528991305  TIP3      9499            0.0000000000
     53397      9699  TIP3      H2            -34.8709067961        1.8069158915      -29.1995271784  TIP3      9499            0.0000000000
     53398      9700  TIP3      OH2           -29.6206429079        2.3588391457      -27.9260674720  TIP3      9500            0.0000000000
     53399      9700  TIP3      H1            -29.0845185199        1.7267109995      -27.4300542046  TIP3      9500            0.0000000000
     53400      9700  TIP3      H2            -29.5047554615        3.1267013768      -27.3190128617  TIP3      9500            0.0000000000
     53401      9701  TIP3      OH2           -27.6668471334       17.2957549160      -29.1704395903  TIP3      9501            0.0000000000
     53402      9701  TIP3      H1            -26.7491225639       17.4354777609      -29.4469617817  TIP3      9501            0.0000000000
     53403      9701  TIP3      H2            -27.9352138510       16.6872752041      -29.9014429379  TIP3      9501            0.0000000000
     53404      9702  TIP3      OH2           -21.1958224266       16.4118743830      -26.1038019401  TIP3      9502            0.0000000000
     53405      9702  TIP3      H1            -21.3464188053       15.6314802605      -26.6927390962  TIP3      9502            0.0000000000
     53406      9702  TIP3      H2            -21.3127955672       17.1421939075      -26.7356219130  TIP3      9502            0.0000000000
     53407      9703  TIP3      OH2           -35.3097318582       16.7347484083      -30.4823055830  TIP3      9503            0.0000000000
     53408      9703  TIP3      H1            -35.4046249606       17.1051839469      -29.5897976855  TIP3      9503            0.0000000000
     53409      9703  TIP3      H2            -34.5995819916       16.0914086525      -30.3335319719  TIP3      9503            0.0000000000
     53410      9704  TIP3      OH2            -7.5783810732        9.4959833971      -24.3402555202  TIP3      9504            0.0000000000
     53411      9704  TIP3      H1             -7.7339858235       10.4008083924      -24.7211252579  TIP3      9504            0.0000000000
     53412      9704  TIP3      H2             -8.2559315283        8.9803499596      -24.7955735014  TIP3      9504            0.0000000000
     53413      9705  TIP3      OH2            -5.0575747734       11.2306570277      -22.8295728452  TIP3      9505            0.0000000000
     53414      9705  TIP3      H1             -5.9388594889       10.8625693590      -22.6798697574  TIP3      9505            0.0000000000
     53415      9705  TIP3      H2             -5.1132225538       12.0616498377      -22.3463261413  TIP3      9505            0.0000000000
     53416      9706  TIP3      OH2           -18.4644120033        5.7112805297      -25.4114103409  TIP3      9506            0.0000000000
     53417      9706  TIP3      H1            -18.6491241891        6.5481452214      -24.9654243460  TIP3      9506            0.0000000000
     53418      9706  TIP3      H2            -19.0861556687        5.6909669095      -26.1474804809  TIP3      9506            0.0000000000
     53419      9707  TIP3      OH2           -18.4931464182        8.4311859652      -23.2258720225  TIP3      9507            0.0000000000
     53420      9707  TIP3      H1            -18.1279404817        8.0754626534      -22.3905154388  TIP3      9507            0.0000000000
     53421      9707  TIP3      H2            -17.8353064044        9.1007432710      -23.4494066371  TIP3      9507            0.0000000000
     53422      9708  TIP3      OH2            -7.7385843199       16.3962392246      -22.2187920754  TIP3      9508            0.0000000000
     53423      9708  TIP3      H1             -7.0924707810       15.9794340019      -22.8091872138  TIP3      9508            0.0000000000
     53424      9708  TIP3      H2             -8.5340400505       15.8846074358      -22.4055956456  TIP3      9508            0.0000000000
     53425      9709  TIP3      OH2            -9.8771341621       11.1006563922      -19.6632204149  TIP3      9509            0.0000000000
     53426      9709  TIP3      H1             -9.7986804106       10.5582775412      -20.4522985829  TIP3      9509            0.0000000000
     53427      9709  TIP3      H2             -9.9361851843       10.3876611317      -18.9886123089  TIP3      9509            0.0000000000
     53428      9710  TIP3      OH2           -13.6440508577        3.2606095089      -22.7927316584  TIP3      9510            0.0000000000
     53429      9710  TIP3      H1            -13.4348013291        4.0714532874      -23.3183064837  TIP3      9510            0.0000000000
     53430      9710  TIP3      H2            -14.1966249066        2.8262885109      -23.4773489339  TIP3      9510            0.0000000000
     53431      9711  TIP3      OH2            -6.1796676319        3.7349794496      -24.4527773098  TIP3      9511            0.0000000000
     53432      9711  TIP3      H1             -5.5071012391        3.0409275894      -24.2689905542  TIP3      9511            0.0000000000
     53433      9711  TIP3      H2             -5.6598870025        4.4633895857      -24.8079136378  TIP3      9511            0.0000000000
     53434      9712  TIP3      OH2           -12.6711122552        7.3168313569      -22.9840349762  TIP3      9512            0.0000000000
     53435      9712  TIP3      H1            -11.8943195269        6.8349040131      -22.6288843396  TIP3      9512            0.0000000000
     53436      9712  TIP3      H2            -13.0741533223        6.6078664110      -23.5423431245  TIP3      9512            0.0000000000
     53437      9713  TIP3      OH2            -8.1758940384       11.6917770514      -25.5907617912  TIP3      9513            0.0000000000
     53438      9713  TIP3      H1             -8.3039015122       11.7044472561      -26.5543624391  TIP3      9513            0.0000000000
     53439      9713  TIP3      H2             -8.4579340354       12.5973327016      -25.3362101246  TIP3      9513            0.0000000000
     53440      9714  TIP3      OH2           -18.0183769443       11.4663539448      -26.9970761925  TIP3      9514            0.0000000000
     53441      9714  TIP3      H1            -18.1193441376       11.9815357479      -27.8256153129  TIP3      9514            0.0000000000
     53442      9714  TIP3      H2            -17.9573551894       12.1851348604      -26.3278138171  TIP3      9514            0.0000000000
     53443      9715  TIP3      OH2           -11.1306062336       -0.0199311386      -21.8860131312  TIP3      9515            0.0000000000
     53444      9715  TIP3      H1            -10.8896079093       -0.9558840636      -21.8110280564  TIP3      9515            0.0000000000
     53445      9715  TIP3      H2            -11.8827460635        0.0451268031      -21.2553740939  TIP3      9515            0.0000000000
     53446      9716  TIP3      OH2            -6.1901724674       15.1273652484      -24.2811777331  TIP3      9516            0.0000000000
     53447      9716  TIP3      H1             -5.7280912256       14.2899360239      -24.5363271715  TIP3      9516            0.0000000000
     53448      9716  TIP3      H2             -5.4390038793       15.7348027236      -24.1157283395  TIP3      9516            0.0000000000
     53449      9717  TIP3      OH2            -4.9743936533       12.9252990060      -25.3007876804  TIP3      9517            0.0000000000
     53450      9717  TIP3      H1             -5.1584829329       12.3908667571      -26.1040587937  TIP3      9517            0.0000000000
     53451      9717  TIP3      H2             -4.8377254638       12.2019318961      -24.6590737020  TIP3      9517            0.0000000000
     53452      9718  TIP3      OH2            -8.9593783384        8.5324576251      -27.0229792069  TIP3      9518            0.0000000000
     53453      9718  TIP3      H1             -9.5116178399        9.3270628221      -27.1490417778  TIP3      9518            0.0000000000
     53454      9718  TIP3      H2             -8.1616673526        8.7590859355      -27.5351301726  TIP3      9518            0.0000000000
     53455      9719  TIP3      OH2            -8.6560847164        7.5200404447      -30.0388254278  TIP3      9519            0.0000000000
     53456      9719  TIP3      H1             -8.0092345862        7.8293367119      -29.3640444705  TIP3      9519            0.0000000000
     53457      9719  TIP3      H2             -8.4978232521        6.5665863466      -30.0202917915  TIP3      9519            0.0000000000
     53458      9720  TIP3      OH2            -5.4593107888        8.8599779858      -25.9943682487  TIP3      9520            0.0000000000
     53459      9720  TIP3      H1             -6.1355914125        8.9638730167      -25.2847289537  TIP3      9520            0.0000000000
     53460      9720  TIP3      H2             -4.8036582105        8.3067566019      -25.5096190794  TIP3      9520            0.0000000000
     53461      9721  TIP3      OH2           -13.9140270952        9.2788273733      -24.1617872132  TIP3      9521            0.0000000000
     53462      9721  TIP3      H1            -14.2362263918        8.7536915421      -24.9284850969  TIP3      9521            0.0000000000
     53463      9721  TIP3      H2            -13.4017947790        8.5992630449      -23.6710365069  TIP3      9521            0.0000000000
     53464      9722  TIP3      OH2           -13.1392152073        8.6155684036      -20.7490999665  TIP3      9522            0.0000000000
     53465      9722  TIP3      H1            -13.1414526000        8.0666564225      -21.5657943422  TIP3      9522            0.0000000000
     53466      9722  TIP3      H2            -12.4617140819        8.1906993261      -20.2091695488  TIP3      9522            0.0000000000
     53467      9723  TIP3      OH2            -6.6217050748        8.2651955433      -28.3453749771  TIP3      9523            0.0000000000
     53468      9723  TIP3      H1             -6.1820166254        8.5406494703      -27.5073034711  TIP3      9523            0.0000000000
     53469      9723  TIP3      H2             -6.0204058495        8.6847649100      -29.0176780455  TIP3      9523            0.0000000000
     53470      9724  TIP3      OH2            -8.9765634575       14.3303245856      -24.8170656578  TIP3      9524            0.0000000000
     53471      9724  TIP3      H1             -8.0596655044       14.6169247768      -24.6696289951  TIP3      9524            0.0000000000
     53472      9724  TIP3      H2             -9.2952478798       14.9539829691      -25.4911093359  TIP3      9524            0.0000000000
     53473      9725  TIP3      OH2           -15.1443324612        8.1942138268      -26.4585864101  TIP3      9525            0.0000000000
     53474      9725  TIP3      H1            -15.4183720621        9.0301374420      -26.8791560856  TIP3      9525            0.0000000000
     53475      9725  TIP3      H2            -15.4427726521        7.5421304988      -27.1047156685  TIP3      9525            0.0000000000
     53476      9726  TIP3      OH2            -1.5501455559       14.1779548329      -30.0600732872  TIP3      9526            0.0000000000
     53477      9726  TIP3      H1             -1.2232368930       15.0575747636      -29.7714462189  TIP3      9526            0.0000000000
     53478      9726  TIP3      H2             -0.7710851356       13.6220430124      -29.8170135367  TIP3      9526            0.0000000000
     53479      9727  TIP3      OH2            -9.1166410207       17.3548366322      -26.6189896133  TIP3      9527            0.0000000000
     53480      9727  TIP3      H1             -9.2799612092       17.4726546854      -27.5758366254  TIP3      9527            0.0000000000
     53481      9727  TIP3      H2             -9.2239159844       18.2787363445      -26.3085987962  TIP3      9527            0.0000000000
     53482      9728  TIP3      OH2           -15.4411916340       16.3328900146      -24.6167383925  TIP3      9528            0.0000000000
     53483      9728  TIP3      H1            -15.3900224732       15.9052921246      -23.7490868965  TIP3      9528            0.0000000000
     53484      9728  TIP3      H2            -16.3780237838       16.2533577309      -24.8380452450  TIP3      9528            0.0000000000
     53485      9729  TIP3      OH2            -6.1601177541       16.8530927299      -29.5157553668  TIP3      9529            0.0000000000
     53486      9729  TIP3      H1             -5.6314146446       16.1237328694      -29.9268618813  TIP3      9529            0.0000000000
     53487      9729  TIP3      H2             -6.0255517131       16.6867238240      -28.5653528307  TIP3      9529            0.0000000000
     53488      9730  TIP3      OH2            -6.4237467101       16.6882178943      -26.6931902450  TIP3      9530            0.0000000000
     53489      9730  TIP3      H1             -7.3681430513       16.9420079981      -26.5910182993  TIP3      9530            0.0000000000
     53490      9730  TIP3      H2             -6.3807932946       15.9599089373      -26.0421948833  TIP3      9530            0.0000000000
     53491      9731  TIP3      OH2           -13.4608353318        0.6618281845      -20.5610551260  TIP3      9531            0.0000000000
     53492      9731  TIP3      H1            -14.2933682305        0.3494205844      -20.9722542419  TIP3      9531            0.0000000000
     53493      9731  TIP3      H2            -13.6321339869        1.6071341349      -20.5482288781  TIP3      9531            0.0000000000
     53494      9732  TIP3      OH2            -4.9912887873        9.3593772351      -30.1056010840  TIP3      9532            0.0000000000
     53495      9732  TIP3      H1             -4.9732771873        9.1229581784      -31.0613627434  TIP3      9532            0.0000000000
     53496      9732  TIP3      H2             -4.2241790307        9.9557708331      -30.1117681842  TIP3      9532            0.0000000000
     53497      9733  TIP3      OH2            -9.2956801690        2.6014372102      -29.9335077198  TIP3      9533            0.0000000000
     53498      9733  TIP3      H1             -9.7254816575        2.5575776916      -29.0572199523  TIP3      9533            0.0000000000
     53499      9733  TIP3      H2             -9.9993152004        2.1748419589      -30.4455188751  TIP3      9533            0.0000000000
     53500      9734  TIP3      OH2           -13.4574262195        5.3041486097      -24.3884258658  TIP3      9534            0.0000000000
     53501      9734  TIP3      H1            -14.4218950642        5.4158088722      -24.5958288100  TIP3      9534            0.0000000000
     53502      9734  TIP3      H2            -13.0938899820        5.2768856722      -25.3103683232  TIP3      9534            0.0000000000
     53503      9735  TIP3      OH2            -7.8828452046        6.3244961848      -26.1029010940  TIP3      9535            0.0000000000
     53504      9735  TIP3      H1             -8.3025966783        7.1178119477      -26.5114689617  TIP3      9535            0.0000000000
     53505      9735  TIP3      H2             -7.2722414760        6.0760627652      -26.8233256900  TIP3      9535            0.0000000000
     53506      9736  TIP3      OH2           -12.8692187349        3.2883679870      -30.6971542184  TIP3      9536            0.0000000000
     53507      9736  TIP3      H1            -13.4275987941        2.8252881454      -30.0343336316  TIP3      9536            0.0000000000
     53508      9736  TIP3      H2            -13.5107884497        3.8555146879      -31.1669402229  TIP3      9536            0.0000000000
     53509      9737  TIP3      OH2           -20.0736939318        2.8486384509      -23.7410597235  TIP3      9537            0.0000000000
     53510      9737  TIP3      H1            -19.2217477949        3.0679887073      -23.3102078857  TIP3      9537            0.0000000000
     53511      9737  TIP3      H2            -19.7636699435        2.2845274339      -24.4697143435  TIP3      9537            0.0000000000
     53512      9738  TIP3      OH2           -18.3204961914        3.5195409662      -28.4668399216  TIP3      9538            0.0000000000
     53513      9738  TIP3      H1            -17.7283959197        3.8686132304      -29.1517934650  TIP3      9538            0.0000000000
     53514      9738  TIP3      H2            -18.9587293486        4.2643443196      -28.4079208363  TIP3      9538            0.0000000000
     53515      9739  TIP3      OH2           -10.7664298449        3.4399455098      -23.6513165336  TIP3      9539            0.0000000000
     53516      9739  TIP3      H1            -11.5987391169        3.0222060055      -23.3723446111  TIP3      9539            0.0000000000
     53517      9739  TIP3      H2            -10.1132538657        2.8863445729      -23.1580105059  TIP3      9539            0.0000000000
     53518      9740  TIP3      OH2           -15.9452458231        5.2003900387      -24.9892967878  TIP3      9540            0.0000000000
     53519      9740  TIP3      H1            -16.8906601835        5.4744627812      -25.0122365251  TIP3      9540            0.0000000000
     53520      9740  TIP3      H2            -16.0691084658        4.2388434463      -25.0941674936  TIP3      9540            0.0000000000
     53521      9741  TIP3      OH2           -12.7023659109        5.1093622983      -26.9955057815  TIP3      9541            0.0000000000
     53522      9741  TIP3      H1            -11.7723484205        5.0839266430      -27.2643217676  TIP3      9541            0.0000000000
     53523      9741  TIP3      H2            -13.1346813475        5.6376718570      -27.6879744745  TIP3      9541            0.0000000000
     53524      9742  TIP3      OH2           -13.9244417233        6.2129264900      -29.4811501426  TIP3      9542            0.0000000000
     53525      9742  TIP3      H1            -14.3653015510        5.6513495620      -30.1305846537  TIP3      9542            0.0000000000
     53526      9742  TIP3      H2            -13.1089764453        6.4462632113      -29.9717813217  TIP3      9542            0.0000000000
     53527      9743  TIP3      OH2           -10.8965033371        5.8870744043      -21.6903240808  TIP3      9543            0.0000000000
     53528      9743  TIP3      H1            -10.4240245848        5.3826249479      -22.3793705762  TIP3      9543            0.0000000000
     53529      9743  TIP3      H2            -10.1786070079        6.3065636544      -21.1877588294  TIP3      9543            0.0000000000
     53530      9744  TIP3      OH2           -15.3453862300        2.4004081136      -24.9311193472  TIP3      9544            0.0000000000
     53531      9744  TIP3      H1            -15.8161422148        1.6003162829      -24.5933908200  TIP3      9544            0.0000000000
     53532      9744  TIP3      H2            -14.7586248289        2.0106022709      -25.5839004621  TIP3      9544            0.0000000000
     53533      9745  TIP3      OH2           -10.6987225040       10.8285763616      -27.4272267611  TIP3      9545            0.0000000000
     53534      9745  TIP3      H1            -11.4503407480       10.3116047258      -27.7822875405  TIP3      9545            0.0000000000
     53535      9745  TIP3      H2            -10.9798705437       10.9311405761      -26.4904970943  TIP3      9545            0.0000000000
     53536      9746  TIP3      OH2            -6.8739591579        3.2931838690      -29.1601337997  TIP3      9546            0.0000000000
     53537      9746  TIP3      H1             -7.8274818278        3.2596920889      -29.4136336497  TIP3      9546            0.0000000000
     53538      9746  TIP3      H2             -6.7430529163        4.2427165692      -28.9380914936  TIP3      9546            0.0000000000
     53539      9747  TIP3      OH2            -6.2032662767        5.5485064090      -28.0016119741  TIP3      9547            0.0000000000
     53540      9747  TIP3      H1             -5.4851459250        5.4207568476      -27.3446393139  TIP3      9547            0.0000000000
     53541      9747  TIP3      H2             -5.9998335100        6.4151624409      -28.3934513625  TIP3      9547            0.0000000000
     53542      9748  TIP3      OH2           -15.2561959736       10.1025238627      -21.7877927426  TIP3      9548            0.0000000000
     53543      9748  TIP3      H1            -15.0026449202       10.0601032571      -22.7236617833  TIP3      9548            0.0000000000
     53544      9748  TIP3      H2            -14.5698413208        9.5455331084      -21.3704047680  TIP3      9548            0.0000000000
     53545      9749  TIP3      OH2            -8.5780647351       11.8872314636      -28.6076690779  TIP3      9549            0.0000000000
     53546      9749  TIP3      H1             -8.7841072482       12.7940078466      -28.2926876931  TIP3      9549            0.0000000000
     53547      9749  TIP3      H2             -9.3573490221       11.3807626720      -28.2762617380  TIP3      9549            0.0000000000
     53548      9750  TIP3      OH2            -3.5725881652       14.6436237129      -27.8327993181  TIP3      9550            0.0000000000
     53549      9750  TIP3      H1             -3.7125845320       14.0779885592      -27.0589670543  TIP3      9550            0.0000000000
     53550      9750  TIP3      H2             -2.9336572712       14.1440890388      -28.3696923190  TIP3      9550            0.0000000000
     53551      9751  TIP3      OH2           -13.0385392909       13.4797170313      -24.2593170626  TIP3      9551            0.0000000000
     53552      9751  TIP3      H1            -12.7009618659       14.3874831070      -24.3440118497  TIP3      9551            0.0000000000
     53553      9751  TIP3      H2            -13.7728930807       13.4990405753      -24.8859207779  TIP3      9551            0.0000000000
     53554      9752  TIP3      OH2           -16.9054117472        8.7498537512      -29.7636860746  TIP3      9552            0.0000000000
     53555      9752  TIP3      H1            -16.5337340449        9.3508337449      -29.0839556368  TIP3      9552            0.0000000000
     53556      9752  TIP3      H2            -17.8661422808        8.7047801931      -29.5674509676  TIP3      9552            0.0000000000
     53557      9753  TIP3      OH2           -11.9293570715       11.0258431749      -25.0961489940  TIP3      9553            0.0000000000
     53558      9753  TIP3      H1            -12.2291665278       11.9180900173      -24.8324933284  TIP3      9553            0.0000000000
     53559      9753  TIP3      H2            -12.5232118859       10.4808386164      -24.5512868603  TIP3      9553            0.0000000000
     53560      9754  TIP3      OH2           -12.8735277216       16.1868223251      -25.3202941751  TIP3      9554            0.0000000000
     53561      9754  TIP3      H1            -13.8510565688       16.3197727620      -25.2718771239  TIP3      9554            0.0000000000
     53562      9754  TIP3      H2            -12.5763290037       17.0764036719      -25.0595621766  TIP3      9554            0.0000000000
     53563      9755  TIP3      OH2            -5.4398654232       12.5802018416      -29.7436428267  TIP3      9555            0.0000000000
     53564      9755  TIP3      H1             -5.4377210950       12.2925429238      -28.8015384510  TIP3      9555            0.0000000000
     53565      9755  TIP3      H2             -6.1937899509       12.0529184109      -30.0617286069  TIP3      9555            0.0000000000
     53566      9756  TIP3      OH2            -0.9562090868       16.6919921099      -29.1917134574  TIP3      9556            0.0000000000
     53567      9756  TIP3      H1             -0.3195437415       17.3345096366      -29.5485727020  TIP3      9556            0.0000000000
     53568      9756  TIP3      H2             -1.6535381636       17.2976093690      -28.8497304950  TIP3      9556            0.0000000000
     53569      9757  TIP3      OH2            -4.7929888274       11.1915400711      -27.3654838938  TIP3      9557            0.0000000000
     53570      9757  TIP3      H1             -5.0240541908       10.3453708603      -26.9078917884  TIP3      9557            0.0000000000
     53571      9757  TIP3      H2             -3.8269485122       11.1859564705      -27.3385611572  TIP3      9557            0.0000000000
     53572      9758  TIP3      OH2           -11.3127403941       13.7973299622      -31.1384747621  TIP3      9558            0.0000000000
     53573      9758  TIP3      H1            -11.4347422485       13.3280132358      -31.9778094805  TIP3      9558            0.0000000000
     53574      9758  TIP3      H2            -11.8484017183       13.2198987631      -30.5535521084  TIP3      9558            0.0000000000
     53575      9759  TIP3      OH2           -12.6041484634       12.9430531656      -28.7240029116  TIP3      9559            0.0000000000
     53576      9759  TIP3      H1            -11.8567757454       12.5178327081      -28.2628591237  TIP3      9559            0.0000000000
     53577      9759  TIP3      H2            -12.4641518259       13.8728347302      -28.4230128243  TIP3      9559            0.0000000000
     53578      9760  TIP3      OH2           -15.7259139554       10.3609443746      -28.0347765125  TIP3      9560            0.0000000000
     53579      9760  TIP3      H1            -16.5232816495       10.7743280042      -27.6413780771  TIP3      9560            0.0000000000
     53580      9760  TIP3      H2            -15.3450775670       11.1015757701      -28.5396485228  TIP3      9560            0.0000000000
     53581      9761  TIP3      OH2            -7.4671609954        2.5994647678      -26.5177956249  TIP3      9561            0.0000000000
     53582      9761  TIP3      H1             -7.2770850301        3.0353233838      -27.3668634322  TIP3      9561            0.0000000000
     53583      9761  TIP3      H2             -6.9800312305        3.1337231338      -25.8597585857  TIP3      9561            0.0000000000
     53584      9762  TIP3      OH2            -9.4449466565       14.5462950548      -27.8954441453  TIP3      9562            0.0000000000
     53585      9762  TIP3      H1            -10.2923379234       15.0249001131      -27.8028359744  TIP3      9562            0.0000000000
     53586      9762  TIP3      H2             -8.8815192399       15.1919260020      -28.3515308890  TIP3      9562            0.0000000000
     53587      9763  TIP3      OH2           -10.0423389601        4.3183238613      -26.1551843307  TIP3      9563            0.0000000000
     53588      9763  TIP3      H1             -9.3766968604        5.0151149186      -26.0042286749  TIP3      9563            0.0000000000
     53589      9763  TIP3      H2            -10.3124506754        4.0604203127      -25.2436998524  TIP3      9563            0.0000000000
     53590      9764  TIP3      OH2            -9.4351110242        1.1708015984      -25.4527778823  TIP3      9564            0.0000000000
     53591      9764  TIP3      H1             -9.6684985480        1.7277647464      -24.6979491339  TIP3      9564            0.0000000000
     53592      9764  TIP3      H2             -8.6535764652        1.6764011114      -25.8168294096  TIP3      9564            0.0000000000
     53593      9765  TIP3      OH2           -12.1593262349       15.4102630637      -27.9186616830  TIP3      9565            0.0000000000
     53594      9765  TIP3      H1            -12.1499211825       16.1504980055      -28.5729465896  TIP3      9565            0.0000000000
     53595      9765  TIP3      H2            -12.4566530291       15.8993853052      -27.1195554387  TIP3      9565            0.0000000000
     53596      9766  TIP3      OH2           -13.8746494045        2.3829191588      -28.2845214446  TIP3      9566            0.0000000000
     53597      9766  TIP3      H1            -13.9633553180        3.2387555528      -27.8345227503  TIP3      9566            0.0000000000
     53598      9766  TIP3      H2            -12.9114236582        2.2618978991      -28.1829300918  TIP3      9566            0.0000000000
     53599      9767  TIP3      OH2           -15.3666281238       12.7601315514      -29.5469338739  TIP3      9567            0.0000000000
     53600      9767  TIP3      H1            -14.6115089479       13.0575003411      -28.9940244270  TIP3      9567            0.0000000000
     53601      9767  TIP3      H2            -14.8656424732       12.3037726299      -30.2505958674  TIP3      9567            0.0000000000
     53602      9768  TIP3      OH2           -17.1521774170        5.6889617568      -30.3348670374  TIP3      9568            0.0000000000
     53603      9768  TIP3      H1            -16.6620977542        6.4259105746      -29.9347011910  TIP3      9568            0.0000000000
     53604      9768  TIP3      H2            -17.8513281316        6.1604494117      -30.8277387831  TIP3      9568            0.0000000000
     53605      9769  TIP3      OH2           -15.9994947166        0.4533342830      -21.3493805997  TIP3      9569            0.0000000000
     53606      9769  TIP3      H1            -16.3132648161        0.4286637244      -22.2729206264  TIP3      9569            0.0000000000
     53607      9769  TIP3      H2            -16.4361767555       -0.3351525255      -20.9805565910  TIP3      9569            0.0000000000
     53608      9770  TIP3      OH2           -17.5398806318       13.8985629003      -25.6315727179  TIP3      9570            0.0000000000
     53609      9770  TIP3      H1            -18.1937508016       14.5627221535      -25.3712410297  TIP3      9570            0.0000000000
     53610      9770  TIP3      H2            -17.1305951920       14.4022058403      -26.3580214131  TIP3      9570            0.0000000000
     53611      9771  TIP3      OH2            -9.1877133934       15.6349515104      -31.1638064515  TIP3      9571            0.0000000000
     53612      9771  TIP3      H1             -9.7179796328       14.8170855462      -31.1049275380  TIP3      9571            0.0000000000
     53613      9771  TIP3      H2             -8.3630596390       15.2976405569      -31.5736667868  TIP3      9571            0.0000000000
     53614      9772  TIP3      OH2            -4.7487872575       14.9901226367      -31.0660514865  TIP3      9572            0.0000000000
     53615      9772  TIP3      H1             -4.6178959733       14.3044277530      -30.3818325056  TIP3      9572            0.0000000000
     53616      9772  TIP3      H2             -3.8405090665       15.1050552888      -31.3977273644  TIP3      9572            0.0000000000
     53617      9773  TIP3      OH2           -13.8669078758       11.0388819272      -31.2712229095  TIP3      9573            0.0000000000
     53618      9773  TIP3      H1            -13.6905785888       10.3583611055      -30.6053101325  TIP3      9573            0.0000000000
     53619      9773  TIP3      H2            -12.9852770148       11.1128815714      -31.7059645461  TIP3      9573            0.0000000000
     53620      9774  TIP3      OH2            -8.2044988144       12.2980797362      -31.4443125684  TIP3      9574            0.0000000000
     53621      9774  TIP3      H1             -8.5321238759       12.1569526671      -30.5362182401  TIP3      9574            0.0000000000
     53622      9774  TIP3      H2             -8.1929619713       11.3521145450      -31.7374360343  TIP3      9574            0.0000000000
     53623      9775  TIP3      OH2           -12.5470624303        9.1687621386      -28.6236379118  TIP3      9575            0.0000000000
     53624      9775  TIP3      H1            -13.1960576126        8.5794731330      -28.2137818199  TIP3      9575            0.0000000000
     53625      9775  TIP3      H2            -12.1407008170        8.5713536614      -29.2810679195  TIP3      9575            0.0000000000
     53626      9776  TIP3      OH2           -11.3790521263        7.3722074892      -30.5602749777  TIP3      9576            0.0000000000
     53627      9776  TIP3      H1            -11.4226538233        7.6528749441      -31.4959017899  TIP3      9576            0.0000000000
     53628      9776  TIP3      H2            -10.4091337413        7.4094163690      -30.4020618021  TIP3      9576            0.0000000000
     53629      9777  TIP3      OH2            -2.2397612772        9.5455807596      -31.0273721713  TIP3      9577            0.0000000000
     53630      9777  TIP3      H1             -2.3962217819        9.3147672856      -31.9655608564  TIP3      9577            0.0000000000
     53631      9777  TIP3      H2             -2.2411615048       10.5309238446      -31.0933943166  TIP3      9577            0.0000000000
     53632      9778  TIP3      OH2           -11.7098944668       17.7611986927      -29.2056932407  TIP3      9578            0.0000000000
     53633      9778  TIP3      H1            -10.7655907593       17.9924849950      -29.1135136015  TIP3      9578            0.0000000000
     53634      9778  TIP3      H2            -11.8627490742       18.2438721322      -30.0328615135  TIP3      9578            0.0000000000
     53635      9779  TIP3      OH2           -18.2183409490       12.5658124951      -29.6943317251  TIP3      9579            0.0000000000
     53636      9779  TIP3      H1            -17.2398933569       12.6046727435      -29.7431318523  TIP3      9579            0.0000000000
     53637      9779  TIP3      H2            -18.4190944068       12.0266685665      -30.4915542802  TIP3      9579            0.0000000000
     53638      9780  TIP3      OH2           -19.1823306949       17.5203484868      -24.6597059331  TIP3      9580            0.0000000000
     53639      9780  TIP3      H1            -19.9025026720       16.9752707662      -25.0456734710  TIP3      9580            0.0000000000
     53640      9780  TIP3      H2            -18.7871032181       16.9050049560      -24.0184931134  TIP3      9580            0.0000000000
     53641      9781  TIP3      OH2           -18.5065742968       15.6802138062      -22.7573431433  TIP3      9581            0.0000000000
     53642      9781  TIP3      H1            -18.8883859845       14.7987811831      -22.8899165895  TIP3      9581            0.0000000000
     53643      9781  TIP3      H2            -18.9772108128       15.9154249245      -21.9449109026  TIP3      9581            0.0000000000
     53644      9782  TIP3      OH2            -0.6534130199        8.3285506061      -28.9487021184  TIP3      9582            0.0000000000
     53645      9782  TIP3      H1             -1.3991178904        8.6105292697      -29.5083082450  TIP3      9582            0.0000000000
     53646      9782  TIP3      H2             -0.6749104088        8.9610596817      -28.2127684714  TIP3      9582            0.0000000000
     53647      9783  TIP3      OH2            -3.3704248825        5.4677810824      -30.3863027722  TIP3      9583            0.0000000000
     53648      9783  TIP3      H1             -2.7996083258        6.1082872705      -30.8321187102  TIP3      9583            0.0000000000
     53649      9783  TIP3      H2             -3.1152322351        4.6448484218      -30.8210125696  TIP3      9583            0.0000000000
     53650      9784  TIP3      OH2            -3.7536376283        7.3555684982      -24.3909385313  TIP3      9584            0.0000000000
     53651      9784  TIP3      H1             -3.4594054963        6.4376158758      -24.4440098568  TIP3      9584            0.0000000000
     53652      9784  TIP3      H2             -3.0006746284        7.8203511417      -24.0078819645  TIP3      9584            0.0000000000
     53653      9785  TIP3      OH2            -3.3249104941        2.5415928681      -30.7904691431  TIP3      9585            0.0000000000
     53654      9785  TIP3      H1             -3.1356288164        2.5423458254      -29.8416317825  TIP3      9585            0.0000000000
     53655      9785  TIP3      H2             -4.2589168738        2.7883015068      -30.8632961716  TIP3      9585            0.0000000000
     53656      9786  TIP3      OH2            -4.2226395966        4.8958485899      -26.1497012580  TIP3      9586            0.0000000000
     53657      9786  TIP3      H1             -3.8528143997        4.0269925232      -25.9128785273  TIP3      9586            0.0000000000
     53658      9786  TIP3      H2             -3.4261793447        5.3731505635      -26.4065834063  TIP3      9586            0.0000000000
     53659      9787  TIP3      OH2           -17.8392207930        3.0108292067      -21.9105924552  TIP3      9587            0.0000000000
     53660      9787  TIP3      H1            -17.5156221540        2.1855372231      -21.5241047092  TIP3      9587            0.0000000000
     53661      9787  TIP3      H2            -17.6055077395        3.6877917226      -21.2760346081  TIP3      9587            0.0000000000
     53662      9788  TIP3      OH2            -0.9871137006        2.1653526840      -29.4944947381  TIP3      9588            0.0000000000
     53663      9788  TIP3      H1             -0.8571596056        1.3615337908      -30.0389659139  TIP3      9588            0.0000000000
     53664      9788  TIP3      H2             -1.2629662089        2.7409125302      -30.2201901393  TIP3      9588            0.0000000000
     53665      9789  TIP3      OH2           -19.1165490086        2.0891393072      -26.2711378127  TIP3      9589            0.0000000000
     53666      9789  TIP3      H1            -20.0556298452        2.3006791405      -26.3468144376  TIP3      9589            0.0000000000
     53667      9789  TIP3      H2            -18.7870846460        2.6219011040      -27.0208587993  TIP3      9589            0.0000000000
     53668      9790  TIP3      OH2            -4.0913183443       17.0362050197      -24.0277831199  TIP3      9590            0.0000000000
     53669      9790  TIP3      H1             -3.6569038780       16.7498228878      -24.8534967759  TIP3      9590            0.0000000000
     53670      9790  TIP3      H2             -3.5344150563       17.7877653964      -23.7743973433  TIP3      9590            0.0000000000
     53671      9791  TIP3      OH2            -9.1832572283        1.6558930214      -22.4733801317  TIP3      9591            0.0000000000
     53672      9791  TIP3      H1             -9.9418205555        1.2347104551      -22.0122519473  TIP3      9591            0.0000000000
     53673      9791  TIP3      H2             -8.6960450064        0.8481623133      -22.6946931400  TIP3      9591            0.0000000000
     53674      9792  TIP3      OH2           -16.6118084094        0.1651652155      -24.3143951735  TIP3      9592            0.0000000000
     53675      9792  TIP3      H1            -17.4529993123        0.2242478587      -24.8057022257  TIP3      9592            0.0000000000
     53676      9792  TIP3      H2            -16.2331430735       -0.6987010176      -24.5705200472  TIP3      9592            0.0000000000
     53677      9793  TIP3      OH2           -17.7095837605       -0.1382276751      -28.4272496627  TIP3      9593            0.0000000000
     53678      9793  TIP3      H1            -17.4574161669        0.5279926158      -29.0948142461  TIP3      9593            0.0000000000
     53679      9793  TIP3      H2            -18.3778758086        0.3450459148      -27.9079310296  TIP3      9593            0.0000000000
     53680      9794  TIP3      OH2           -12.4730914745       -0.5734970688      -24.2057841984  TIP3      9594            0.0000000000
     53681      9794  TIP3      H1            -11.9502558627       -0.1603261359      -24.9016665342  TIP3      9594            0.0000000000
     53682      9794  TIP3      H2            -12.0455254070       -0.2725306011      -23.3762131441  TIP3      9594            0.0000000000
     53683      9795  TIP3      OH2           -17.7421234821       15.9465884944      -27.3140603377  TIP3      9595            0.0000000000
     53684      9795  TIP3      H1            -18.6889900490       16.1058475351      -27.4634669264  TIP3      9595            0.0000000000
     53685      9795  TIP3      H2            -17.3933883531       16.7499517883      -27.7345104116  TIP3      9595            0.0000000000
     53686      9796  TIP3      OH2           -16.4826709826        1.9174836999      -30.0471704488  TIP3      9596            0.0000000000
     53687      9796  TIP3      H1            -15.8110098852        1.4244544777      -30.5546887804  TIP3      9596            0.0000000000
     53688      9796  TIP3      H2            -16.0353991668        2.0095939917      -29.1947783357  TIP3      9596            0.0000000000
     53689      9797  TIP3      OH2           -11.0177787345        2.4612783433      -27.8061681367  TIP3      9597            0.0000000000
     53690      9797  TIP3      H1            -10.7130442630        1.8134558664      -27.1571364478  TIP3      9597            0.0000000000
     53691      9797  TIP3      H2            -10.6431264209        3.2556832884      -27.3619613393  TIP3      9597            0.0000000000
     53692      9798  TIP3      OH2            -8.8788152742       17.5110657674      -29.2915793366  TIP3      9598            0.0000000000
     53693      9798  TIP3      H1             -7.9162201217       17.4080411688      -29.4191834789  TIP3      9598            0.0000000000
     53694      9798  TIP3      H2             -9.1894542709       16.8309781262      -29.9334315654  TIP3      9598            0.0000000000
     53695      9799  TIP3      OH2            -2.5151328145       16.4498144208      -26.2372137924  TIP3      9599            0.0000000000
     53696      9799  TIP3      H1             -2.8381997045       15.8305790697      -26.9326682935  TIP3      9599            0.0000000000
     53697      9799  TIP3      H2             -2.4713899810       17.2666739747      -26.7707328266  TIP3      9599            0.0000000000
     53698      9800  TIP3      OH2           -16.4663512307       16.7385001351      -30.5012944627  TIP3      9600            0.0000000000
     53699      9800  TIP3      H1            -16.6984270786       17.1243905244      -29.6403957727  TIP3      9600            0.0000000000
     53700      9800  TIP3      H2            -15.7309059104       16.1450415422      -30.2664299009  TIP3      9600            0.0000000000
     53701      9801  TIP3      OH2            13.8237938132       12.0479767049      -22.1653668309  TIP3      9601            0.0000000000
     53702      9801  TIP3      H1             13.8995399222       11.1107335464      -22.3716752062  TIP3      9601            0.0000000000
     53703      9801  TIP3      H2             13.3816740187       12.0496621926      -21.2941839485  TIP3      9601            0.0000000000
     53704      9802  TIP3      OH2            11.0171024551       16.9061191075      -21.9141357746  TIP3      9602            0.0000000000
     53705      9802  TIP3      H1             11.4891905107       16.4039610700      -22.6101255177  TIP3      9602            0.0000000000
     53706      9802  TIP3      H2             10.6511091734       16.1873082550      -21.4010158343  TIP3      9602            0.0000000000
     53707      9803  TIP3      OH2             8.8178701275       11.4881455961      -19.8150696812  TIP3      9603            0.0000000000
     53708      9803  TIP3      H1              8.7380989598       11.3485308386      -20.7619850232  TIP3      9603            0.0000000000
     53709      9803  TIP3      H2              9.7605863697       11.3888691116      -19.6407321054  TIP3      9603            0.0000000000
     53710      9804  TIP3      OH2             4.9299877093        3.6897558887      -22.9687136429  TIP3      9604            0.0000000000
     53711      9804  TIP3      H1              4.9000424335        4.3840913013      -23.6514441197  TIP3      9604            0.0000000000
     53712      9804  TIP3      H2              4.5166333729        2.9475368985      -23.4695944231  TIP3      9604            0.0000000000
     53713      9805  TIP3      OH2            12.9665572138        3.8651013239      -24.8865962268  TIP3      9605            0.0000000000
     53714      9805  TIP3      H1             13.3132526567        3.3883104493      -24.1215076511  TIP3      9605            0.0000000000
     53715      9805  TIP3      H2             13.7771349436        4.3697547497      -25.1491502512  TIP3      9605            0.0000000000
     53716      9806  TIP3      OH2            11.1145739463       12.0057182792      -25.3799955477  TIP3      9606            0.0000000000
     53717      9806  TIP3      H1             10.8815380743       11.6526279936      -26.2459074252  TIP3      9606            0.0000000000
     53718      9806  TIP3      H2             10.8140106800       12.9457087814      -25.4643170558  TIP3      9606            0.0000000000
     53719      9807  TIP3      OH2             3.3499006113        4.1842822505      -20.7655812630  TIP3      9607            0.0000000000
     53720      9807  TIP3      H1              3.7217336015        5.0669049126      -20.6755265168  TIP3      9607            0.0000000000
     53721      9807  TIP3      H2              3.9241869923        3.7977627631      -21.4536577773  TIP3      9607            0.0000000000
     53722      9808  TIP3      OH2            12.4840497162       15.3446744770      -23.6012017899  TIP3      9608            0.0000000000
     53723      9808  TIP3      H1             12.5859194955       14.4813441866      -24.0526236865  TIP3      9608            0.0000000000
     53724      9808  TIP3      H2             13.2404817962       15.8092831176      -24.0036059042  TIP3      9608            0.0000000000
     53725      9809  TIP3      OH2            14.0457298206       13.2994446011      -24.7232074086  TIP3      9609            0.0000000000
     53726      9809  TIP3      H1             13.9789618551       12.5943857849      -25.3850146819  TIP3      9609            0.0000000000
     53727      9809  TIP3      H2             13.8427554686       12.7838512918      -23.9221429633  TIP3      9609            0.0000000000
     53728      9810  TIP3      OH2            13.3164475528        8.7264188711      -25.4962916371  TIP3      9610            0.0000000000
     53729      9810  TIP3      H1             12.6467503480        8.4263989958      -24.8676817908  TIP3      9610            0.0000000000
     53730      9810  TIP3      H2             14.0829397454        8.1976869566      -25.1939173986  TIP3      9610            0.0000000000
     53731      9811  TIP3      OH2             5.0072329875        9.3781559966      -24.4348650239  TIP3      9611            0.0000000000
     53732      9811  TIP3      H1              4.2063819873        9.2852636744      -24.9811315025  TIP3      9611            0.0000000000
     53733      9811  TIP3      H2              4.8902028252        8.6827535007      -23.7848404569  TIP3      9611            0.0000000000
     53734      9812  TIP3      OH2            10.2423836889       14.4985123014      -25.1879254590  TIP3      9612            0.0000000000
     53735      9812  TIP3      H1             10.4335514251       14.8322474141      -24.3037892744  TIP3      9612            0.0000000000
     53736      9812  TIP3      H2              9.4677792401       15.0036239403      -25.4427161148  TIP3      9612            0.0000000000
     53737      9813  TIP3      OH2            16.1759862611       -0.3864168363      -28.0112313764  TIP3      9613            0.0000000000
     53738      9813  TIP3      H1             15.2410288306       -0.2260773720      -27.7393583157  TIP3      9613            0.0000000000
     53739      9813  TIP3      H2             16.4582670291        0.4956724092      -28.3360624833  TIP3      9613            0.0000000000
     53740      9814  TIP3      OH2            17.3059029405       13.9172256370      -29.7403824503  TIP3      9614            0.0000000000
     53741      9814  TIP3      H1             17.6501124262       14.8226372236      -29.5850014529  TIP3      9614            0.0000000000
     53742      9814  TIP3      H2             18.1454657266       13.4023611538      -29.6998084416  TIP3      9614            0.0000000000
     53743      9815  TIP3      OH2             9.7637370156       17.5556674951      -26.4858259477  TIP3      9615            0.0000000000
     53744      9815  TIP3      H1              9.6279544584       17.6242315796      -27.4539531656  TIP3      9615            0.0000000000
     53745      9815  TIP3      H2              9.6446344853       18.4893008429      -26.2107790438  TIP3      9615            0.0000000000
     53746      9816  TIP3      OH2             3.2453084038       16.3185080025      -24.5880786711  TIP3      9616            0.0000000000
     53747      9816  TIP3      H1              3.5674776135       16.0081272453      -23.7086289844  TIP3      9616            0.0000000000
     53748      9816  TIP3      H2              2.4019259268       15.8334245423      -24.6723477143  TIP3      9616            0.0000000000
     53749      9817  TIP3      OH2            12.8389189453       16.8233481816      -29.4181174754  TIP3      9617            0.0000000000
     53750      9817  TIP3      H1             13.1501087465       16.0156610119      -29.8781933236  TIP3      9617            0.0000000000
     53751      9817  TIP3      H2             12.8973307918       16.5834075313      -28.4740418205  TIP3      9617            0.0000000000
     53752      9818  TIP3      OH2            12.3216663618       16.6239444247      -26.6096954050  TIP3      9618            0.0000000000
     53753      9818  TIP3      H1             11.4005867534       16.9591685959      -26.5585255834  TIP3      9618            0.0000000000
     53754      9818  TIP3      H2             12.1963298090       15.7862081919      -26.1334916312  TIP3      9618            0.0000000000
     53755      9819  TIP3      OH2            13.9597015182        9.3560531878      -29.9460907839  TIP3      9619            0.0000000000
     53756      9819  TIP3      H1             13.8130782799        9.1671350863      -30.8869537943  TIP3      9619            0.0000000000
     53757      9819  TIP3      H2             14.9106121415        9.5723353140      -29.9315811027  TIP3      9619            0.0000000000
     53758      9820  TIP3      OH2             9.7038036086        3.1712724897      -30.1499969019  TIP3      9620            0.0000000000
     53759      9820  TIP3      H1              9.2928924015        3.2360445427      -29.2818179234  TIP3      9620            0.0000000000
     53760      9820  TIP3      H2              9.1361424313        2.4717852846      -30.5330907717  TIP3      9620            0.0000000000
     53761      9821  TIP3      OH2             6.3471402872        3.2057289235      -30.5392944261  TIP3      9621            0.0000000000
     53762      9821  TIP3      H1              5.4675493798        2.9345232019      -30.2553913883  TIP3      9621            0.0000000000
     53763      9821  TIP3      H2              6.2570217515        4.1062718563      -30.9141350617  TIP3      9621            0.0000000000
     53764      9822  TIP3      OH2            -0.3351193546        3.5409221203      -24.0005299034  TIP3      9622            0.0000000000
     53765      9822  TIP3      H1              0.1841039294        3.4438783946      -23.1745722856  TIP3      9622            0.0000000000
     53766      9822  TIP3      H2             -0.7904109771        2.6925549005      -24.0497887101  TIP3      9622            0.0000000000
     53767      9823  TIP3      OH2             7.5019934178        2.7548260218      -23.0541748402  TIP3      9623            0.0000000000
     53768      9823  TIP3      H1              6.7030557662        3.2967565750      -22.9294771999  TIP3      9623            0.0000000000
     53769      9823  TIP3      H2              8.1858048661        3.4343999165      -23.2779013412  TIP3      9623            0.0000000000
     53770      9824  TIP3      OH2             6.5182582152        4.9584584308      -27.0472253709  TIP3      9624            0.0000000000
     53771      9824  TIP3      H1              6.8154688774        5.3080566237      -26.1647389965  TIP3      9624            0.0000000000
     53772      9824  TIP3      H2              5.9346040354        5.6858297843      -27.2904335817  TIP3      9624            0.0000000000
     53773      9825  TIP3      OH2             4.7166511100        6.0895037245      -29.4392740193  TIP3      9625            0.0000000000
     53774      9825  TIP3      H1              4.0447800507        6.1336879728      -30.1418677616  TIP3      9625            0.0000000000
     53775      9825  TIP3      H2              5.5449784789        6.1734837851      -29.9596579638  TIP3      9625            0.0000000000
     53776      9826  TIP3      OH2             3.7820114881        2.3092339998      -24.9739581785  TIP3      9626            0.0000000000
     53777      9826  TIP3      H1              3.1519502541        1.5418089984      -24.9764459189  TIP3      9626            0.0000000000
     53778      9826  TIP3      H2              4.3970179814        2.1056351463      -25.6889578763  TIP3      9626            0.0000000000
     53779      9827  TIP3      OH2             8.0286985551       10.8122713853      -27.2612666562  TIP3      9627            0.0000000000
     53780      9827  TIP3      H1              7.2831949142       10.2951511334      -27.6370587913  TIP3      9627            0.0000000000
     53781      9827  TIP3      H2              7.6713206982       11.0958909487      -26.3933638175  TIP3      9627            0.0000000000
     53782      9828  TIP3      OH2            12.0989733765        3.9417370004      -29.0180046877  TIP3      9628            0.0000000000
     53783      9828  TIP3      H1             11.2280634292        3.6798857673      -29.3856080026  TIP3      9628            0.0000000000
     53784      9828  TIP3      H2             12.3819232357        4.4836944276      -29.7913962024  TIP3      9628            0.0000000000
     53785      9829  TIP3      OH2            10.1198136311       12.0600013841      -28.4874850985  TIP3      9629            0.0000000000
     53786      9829  TIP3      H1              9.8355933747       12.9820809731      -28.2874618043  TIP3      9629            0.0000000000
     53787      9829  TIP3      H2              9.4531214887       11.5253620158      -28.0089954615  TIP3      9629            0.0000000000
     53788      9830  TIP3      OH2            17.7330659034        5.7809538431      -28.0710514111  TIP3      9630            0.0000000000
     53789      9830  TIP3      H1             17.3068114236        5.4172410194      -28.8697207226  TIP3      9630            0.0000000000
     53790      9830  TIP3      H2             17.7341161235        6.7383711098      -28.2589362064  TIP3      9630            0.0000000000
     53791      9831  TIP3      OH2            15.7542734534       14.0748544392      -27.5032305087  TIP3      9631            0.0000000000
     53792      9831  TIP3      H1             15.3129018568       13.2785469696      -27.1736470341  TIP3      9631            0.0000000000
     53793      9831  TIP3      H2             16.2301688383       13.7567743216      -28.2973408534  TIP3      9631            0.0000000000
     53794      9832  TIP3      OH2             5.8187247983       13.6562589452      -24.5416016217  TIP3      9632            0.0000000000
     53795      9832  TIP3      H1              5.8279708799       14.5383832416      -24.9667510422  TIP3      9632            0.0000000000
     53796      9832  TIP3      H2              4.8831632459       13.4586235739      -24.5938352167  TIP3      9632            0.0000000000
     53797      9833  TIP3      OH2             2.0071437647        8.9225606048      -29.5826324890  TIP3      9633            0.0000000000
     53798      9833  TIP3      H1              2.2205084872        9.1117738250      -28.6465405985  TIP3      9633            0.0000000000
     53799      9833  TIP3      H2              1.0624367686        8.6818863300      -29.5091800419  TIP3      9633            0.0000000000
     53800      9834  TIP3      OH2             7.1359963453       11.3061032163      -24.4589769915  TIP3      9634            0.0000000000
     53801      9834  TIP3      H1              6.5884596141       12.1145454403      -24.4476616678  TIP3      9634            0.0000000000
     53802      9834  TIP3      H2              6.4706689346       10.6089597765      -24.3221016443  TIP3      9634            0.0000000000
     53803      9835  TIP3      OH2             5.7707335150       16.0704059278      -25.7562843539  TIP3      9635            0.0000000000
     53804      9835  TIP3      H1              4.8293090440       16.2473471125      -25.5358352689  TIP3      9635            0.0000000000
     53805      9835  TIP3      H2              6.1750033795       16.7672384060      -25.2053742903  TIP3      9635            0.0000000000
     53806      9836  TIP3      OH2            13.6191297029       12.5871634583      -29.7633536129  TIP3      9636            0.0000000000
     53807      9836  TIP3      H1             14.0041669847       12.2174908639      -28.9401375872  TIP3      9636            0.0000000000
     53808      9836  TIP3      H2             12.7225649551       12.2200370058      -29.6716379491  TIP3      9636            0.0000000000
     53809      9837  TIP3      OH2            17.7880817749       16.7065091597      -29.1574896540  TIP3      9637            0.0000000000
     53810      9837  TIP3      H1             18.4416146400       17.3648646630      -29.4356074282  TIP3      9637            0.0000000000
     53811      9837  TIP3      H2             17.0674266156       17.2928164192      -28.8297555700  TIP3      9637            0.0000000000
     53812      9838  TIP3      OH2            14.2891632402       11.1890807007      -27.4688688636  TIP3      9638            0.0000000000
     53813      9838  TIP3      H1             13.7955978520       10.4188703125      -27.1361104869  TIP3      9638            0.0000000000
     53814      9838  TIP3      H2             15.2181155923       10.8572200039      -27.4063260641  TIP3      9638            0.0000000000
     53815      9839  TIP3      OH2             7.5592722270       13.8722011600      -31.2121919073  TIP3      9639            0.0000000000
     53816      9839  TIP3      H1              7.4157704879       13.3287956309      -32.0013290306  TIP3      9639            0.0000000000
     53817      9839  TIP3      H2              6.9595623039       13.4271336018      -30.5914645217  TIP3      9639            0.0000000000
     53818      9840  TIP3      OH2             6.4222661817       12.7852772315      -28.6732058292  TIP3      9640            0.0000000000
     53819      9840  TIP3      H1              7.2658766127       12.5212381680      -28.2597330699  TIP3      9640            0.0000000000
     53820      9840  TIP3      H2              6.3956575441       13.7374834784      -28.4208798016  TIP3      9640            0.0000000000
     53821      9841  TIP3      OH2            11.9163829292        2.1647886008      -26.7991125499  TIP3      9641            0.0000000000
     53822      9841  TIP3      H1             12.2082298233        2.7524505782      -27.5275875437  TIP3      9641            0.0000000000
     53823      9841  TIP3      H2             12.2241863858        2.7072810974      -26.0408672447  TIP3      9641            0.0000000000
     53824      9842  TIP3      OH2             9.3111106599       14.7492642644      -28.1258714361  TIP3      9642            0.0000000000
     53825      9842  TIP3      H1              8.3560380679       14.9845554966      -28.0781495938  TIP3      9642            0.0000000000
     53826      9842  TIP3      H2              9.6747737126       15.6536312499      -28.1902542629  TIP3      9642            0.0000000000
     53827      9843  TIP3      OH2             9.5079400422        1.4362955758      -25.7951810502  TIP3      9643            0.0000000000
     53828      9843  TIP3      H1              9.4419936360        1.7209917070      -24.8655600254  TIP3      9643            0.0000000000
     53829      9843  TIP3      H2             10.3713755523        1.7948927601      -26.1012281605  TIP3      9643            0.0000000000
     53830      9844  TIP3      OH2             6.7616068670       15.4019693824      -28.1937793071  TIP3      9644            0.0000000000
     53831      9844  TIP3      H1              6.7809815173       16.2174644354      -28.7426148866  TIP3      9644            0.0000000000
     53832      9844  TIP3      H2              6.3261715916       15.7681456942      -27.3829437259  TIP3      9644            0.0000000000
     53833      9845  TIP3      OH2             4.9879505426        2.1842944411      -28.2874347342  TIP3      9645            0.0000000000
     53834      9845  TIP3      H1              5.3386129959        3.0802052035      -28.1500231246  TIP3      9645            0.0000000000
     53835      9845  TIP3      H2              5.8248710179        1.6863861655      -28.2055085877  TIP3      9645            0.0000000000
     53836      9846  TIP3      OH2             3.3834393938       12.9498973958      -29.5522219470  TIP3      9646            0.0000000000
     53837      9846  TIP3      H1              3.9977403466       12.9819527904      -28.8092012911  TIP3      9646            0.0000000000
     53838      9846  TIP3      H2              3.8308474355       12.2949998588      -30.1303499924  TIP3      9646            0.0000000000
     53839      9847  TIP3      OH2             1.6954180839       14.1478748995      -25.2399765471  TIP3      9647            0.0000000000
     53840      9847  TIP3      H1              0.7635662824       13.9952007388      -25.0674729596  TIP3      9647            0.0000000000
     53841      9847  TIP3      H2              1.6878866101       14.5587252152      -26.1260742666  TIP3      9647            0.0000000000
     53842      9848  TIP3      OH2             9.6877756458       15.6823277821      -31.1595775017  TIP3      9648            0.0000000000
     53843      9848  TIP3      H1              9.1584767606       14.8764065686      -30.9650130465  TIP3      9648            0.0000000000
     53844      9848  TIP3      H2             10.4882073196       15.3110272992      -31.5817100507  TIP3      9648            0.0000000000
     53845      9849  TIP3      OH2            14.1764348996       14.9934744725      -31.0366692631  TIP3      9649            0.0000000000
     53846      9849  TIP3      H1             14.1965923679       14.2051671485      -30.4470747271  TIP3      9649            0.0000000000
     53847      9849  TIP3      H2             15.0286215927       14.9205707776      -31.4951281947  TIP3      9649            0.0000000000
     53848      9850  TIP3      OH2             4.9141888562       11.2916373842      -31.1985932966  TIP3      9650            0.0000000000
     53849      9850  TIP3      H1              4.9406837164       10.4546076491      -30.7261880404  TIP3      9650            0.0000000000
     53850      9850  TIP3      H2              5.7801263003       11.2653714768      -31.6565558629  TIP3      9650            0.0000000000
     53851      9851  TIP3      OH2            10.7012720729       12.1698955635      -31.3077975964  TIP3      9651            0.0000000000
     53852      9851  TIP3      H1             10.2860596103       12.1361704406      -30.4244618584  TIP3      9651            0.0000000000
     53853      9851  TIP3      H2             10.6238377753       11.2250872680      -31.5503050369  TIP3      9651            0.0000000000
     53854      9852  TIP3      OH2             6.4686335541        8.9063260414      -28.4680443349  TIP3      9652            0.0000000000
     53855      9852  TIP3      H1              5.5477727930        8.6241349465      -28.4118555037  TIP3      9652            0.0000000000
     53856      9852  TIP3      H2              6.7071163492        8.5828651268      -29.3399424630  TIP3      9652            0.0000000000
     53857      9853  TIP3      OH2            16.5891773059        9.4228308665      -31.0736639331  TIP3      9653            0.0000000000
     53858      9853  TIP3      H1             16.3338375589        9.2082431436      -31.9960089951  TIP3      9653            0.0000000000
     53859      9853  TIP3      H2             16.6932838863       10.4050052349      -31.1176490358  TIP3      9653            0.0000000000
     53860      9854  TIP3      OH2             7.0196143853       17.8553259087      -29.1401434458  TIP3      9654            0.0000000000
     53861      9854  TIP3      H1              7.9244620721       18.2012696474      -29.0526644769  TIP3      9654            0.0000000000
     53862      9854  TIP3      H2              6.7763640073       18.2553523618      -29.9896377281  TIP3      9654            0.0000000000
     53863      9855  TIP3      OH2             0.5528604673       12.5183716993      -29.7516014180  TIP3      9655            0.0000000000
     53864      9855  TIP3      H1              1.5111322392       12.6438716542      -29.6644850080  TIP3      9655            0.0000000000
     53865      9855  TIP3      H2              0.5163862937       11.8578057425      -30.4772690431  TIP3      9655            0.0000000000
     53866      9856  TIP3      OH2            -0.4786497859       17.6284721621      -25.0469232130  TIP3      9656            0.0000000000
     53867      9856  TIP3      H1             -1.1451560352       16.9876155940      -25.3825088653  TIP3      9656            0.0000000000
     53868      9856  TIP3      H2             -0.0601942572       17.0790178807      -24.3458507156  TIP3      9656            0.0000000000
     53869      9857  TIP3      OH2             0.3632592777       15.7835897243      -23.2731118477  TIP3      9657            0.0000000000
     53870      9857  TIP3      H1              0.0835980452       14.9562434303      -22.8648458887  TIP3      9657            0.0000000000
     53871      9857  TIP3      H2              0.7837484456       16.2171827716      -22.5012286296  TIP3      9657            0.0000000000
     53872      9858  TIP3      OH2            16.8330661530       10.4039518950      -27.0547307885  TIP3      9658            0.0000000000
     53873      9858  TIP3      H1             17.6427457859       10.9579394949      -27.0945286515  TIP3      9658            0.0000000000
     53874      9858  TIP3      H2             17.0060758290        9.8944816179      -26.2200172088  TIP3      9658            0.0000000000
     53875      9859  TIP3      OH2            17.4324697867        8.8448561519      -24.8759682962  TIP3      9659            0.0000000000
     53876      9859  TIP3      H1             16.7656371778        8.2456025422      -24.4824373727  TIP3      9659            0.0000000000
     53877      9859  TIP3      H2             18.1743755723        8.7518492253      -24.2415653321  TIP3      9659            0.0000000000
     53878      9860  TIP3      OH2            18.0415475841        8.5360287582      -28.9005108895  TIP3      9660            0.0000000000
     53879      9860  TIP3      H1             17.3553644671        8.6173722994      -29.5948962340  TIP3      9660            0.0000000000
     53880      9860  TIP3      H2             17.6451940909        9.0881639763      -28.1940745050  TIP3      9660            0.0000000000
     53881      9861  TIP3      OH2            16.1938032458        5.5761782889      -30.4503088040  TIP3      9661            0.0000000000
     53882      9861  TIP3      H1             16.3285193610        6.2525886664      -31.1333119685  TIP3      9661            0.0000000000
     53883      9861  TIP3      H2             15.9676095427        4.7782188096      -30.9788624079  TIP3      9661            0.0000000000
     53884      9862  TIP3      OH2            15.2951739393        7.0692973340      -24.5532267985  TIP3      9662            0.0000000000
     53885      9862  TIP3      H1             15.4012051458        6.1939050299      -25.0052035148  TIP3      9662            0.0000000000
     53886      9862  TIP3      H2             15.3839946118        6.8324288353      -23.6109284584  TIP3      9662            0.0000000000
     53887      9863  TIP3      OH2            15.5952660142        3.1261726059      -31.4319657136  TIP3      9663            0.0000000000
     53888      9863  TIP3      H1             16.0356074259        2.8325809167      -30.6054723737  TIP3      9663            0.0000000000
     53889      9863  TIP3      H2             14.6740895113        2.8966856948      -31.2597195120  TIP3      9663            0.0000000000
     53890      9864  TIP3      OH2            15.2898388108        4.7159531160      -25.8885322227  TIP3      9664            0.0000000000
     53891      9864  TIP3      H1             15.3793110396        3.7422067615      -25.8433635491  TIP3      9664            0.0000000000
     53892      9864  TIP3      H2             15.7122395047        4.9027801233      -26.7435982011  TIP3      9664            0.0000000000
     53893      9865  TIP3      OH2            15.0437382191        2.0347270955      -25.7562189149  TIP3      9665            0.0000000000
     53894      9865  TIP3      H1             15.9307371366        1.7743683282      -25.4334587388  TIP3      9665            0.0000000000
     53895      9865  TIP3      H2             14.6646179515        1.1873608622      -26.0599786883  TIP3      9665            0.0000000000
     53896      9866  TIP3      OH2             1.2151889557        2.5911202853      -21.7899761514  TIP3      9666            0.0000000000
     53897      9866  TIP3      H1              1.2064976073        1.8769843300      -21.1448913689  TIP3      9666            0.0000000000
     53898      9866  TIP3      H2              1.4207477095        3.3650486322      -21.2441214948  TIP3      9666            0.0000000000
     53899      9867  TIP3      OH2            17.5485611575        1.7055965141      -29.3060305294  TIP3      9667            0.0000000000
     53900      9867  TIP3      H1             18.0370441212        1.3674157127      -30.0888694360  TIP3      9667            0.0000000000
     53901      9867  TIP3      H2             18.2874177755        1.7479611426      -28.6830110157  TIP3      9667            0.0000000000
     53902      9868  TIP3      OH2            14.8950743852       16.7712230379      -24.0740375793  TIP3      9668            0.0000000000
     53903      9868  TIP3      H1             15.3206754139       16.3132998730      -24.8321053394  TIP3      9668            0.0000000000
     53904      9868  TIP3      H2             14.8221162019       17.6597968896      -24.4679494161  TIP3      9668            0.0000000000
     53905      9869  TIP3      OH2             2.0501521993       16.5960470934      -21.1999793122  TIP3      9669            0.0000000000
     53906      9869  TIP3      H1              1.8189794451       16.1274823757      -20.3883149979  TIP3      9669            0.0000000000
     53907      9869  TIP3      H2              2.9278113281       16.2206549476      -21.4274969371  TIP3      9669            0.0000000000
     53908      9870  TIP3      OH2             4.2935723535       15.3084067257      -22.2074207313  TIP3      9670            0.0000000000
     53909      9870  TIP3      H1              4.2919226552       14.3444858906      -22.3022570663  TIP3      9670            0.0000000000
     53910      9870  TIP3      H2              5.0367933983       15.4095230041      -21.5912164024  TIP3      9670            0.0000000000
     53911      9871  TIP3      OH2            10.0190353396        1.2502257794      -22.5028600320  TIP3      9671            0.0000000000
     53912      9871  TIP3      H1              9.8311881136        1.1613337536      -21.5551552789  TIP3      9671            0.0000000000
     53913      9871  TIP3      H2             10.9184290977        0.8744163673      -22.5311536526  TIP3      9671            0.0000000000
     53914      9872  TIP3      OH2            14.8048437870       -0.2647594212      -22.3965997759  TIP3      9672            0.0000000000
     53915      9872  TIP3      H1             15.2351591464        0.4703886909      -22.8757972597  TIP3      9672            0.0000000000
     53916      9872  TIP3      H2             13.8584201960        0.0059843057      -22.4328708201  TIP3      9672            0.0000000000
     53917      9873  TIP3      OH2            16.8942261577        1.0252151440      -24.0564006885  TIP3      9673            0.0000000000
     53918      9873  TIP3      H1             17.2118624097        0.1178254983      -24.1567001749  TIP3      9673            0.0000000000
     53919      9873  TIP3      H2             17.6644438104        1.5509023720      -24.3651929479  TIP3      9673            0.0000000000
     53920      9874  TIP3      OH2             2.2946673414        0.0772895323      -25.0136312607  TIP3      9674            0.0000000000
     53921      9874  TIP3      H1              1.3615813463       -0.1274275540      -24.8623545491  TIP3      9674            0.0000000000
     53922      9874  TIP3      H2              2.7523858046       -0.7863827727      -24.9479355208  TIP3      9674            0.0000000000
     53923      9875  TIP3      OH2             1.3120408724       -0.3212713298      -28.4643611318  TIP3      9675            0.0000000000
     53924      9875  TIP3      H1              1.7096563793        0.3912758144      -29.0010236932  TIP3      9675            0.0000000000
     53925      9875  TIP3      H2              0.6899822811        0.1991720182      -27.9310154751  TIP3      9675            0.0000000000
     53926      9876  TIP3      OH2             6.8069055424       -0.3247246429      -24.2026273994  TIP3      9676            0.0000000000
     53927      9876  TIP3      H1              7.2983321808        0.3073135285      -24.7419347935  TIP3      9676            0.0000000000
     53928      9876  TIP3      H2              6.8318543462        0.1162330726      -23.3417366197  TIP3      9676            0.0000000000
     53929      9877  TIP3      OH2            12.3737617639        0.2039279412      -23.1917839555  TIP3      9677            0.0000000000
     53930      9877  TIP3      H1             12.1193435378        0.2338625969      -24.1193628530  TIP3      9677            0.0000000000
     53931      9877  TIP3      H2             11.9504128376       -0.6225374609      -22.8688615812  TIP3      9677            0.0000000000
     53932      9878  TIP3      OH2            13.6725698226        0.0736391673      -26.9950221891  TIP3      9678            0.0000000000
     53933      9878  TIP3      H1             13.0002692111        0.7712192895      -26.8169298503  TIP3      9678            0.0000000000
     53934      9878  TIP3      H2             13.2670853049       -0.7343148452      -26.6415919122  TIP3      9678            0.0000000000
     53935      9879  TIP3      OH2             1.2239918678       16.0114953754      -27.3384692868  TIP3      9679            0.0000000000
     53936      9879  TIP3      H1              0.4349795844       15.7983795528      -27.8579463817  TIP3      9679            0.0000000000
     53937      9879  TIP3      H2              1.3521577861       16.9448959221      -27.6057891512  TIP3      9679            0.0000000000
     53938      9880  TIP3      OH2             2.6242130101        2.1978676402      -29.8417816285  TIP3      9680            0.0000000000
     53939      9880  TIP3      H1              3.1338876543        1.5142090339      -30.3131874159  TIP3      9680            0.0000000000
     53940      9880  TIP3      H2              3.3143731306        2.5386607279      -29.2435533350  TIP3      9680            0.0000000000
     53941      9881  TIP3      OH2             7.8401744931        2.1497783932      -27.6700408244  TIP3      9681            0.0000000000
     53942      9881  TIP3      H1              8.4117963010        1.7297092405      -26.9909825843  TIP3      9681            0.0000000000
     53943      9881  TIP3      H2              7.6950868906        3.0257006945      -27.2741885878  TIP3      9681            0.0000000000
     53944      9882  TIP3      OH2             9.9882607062       17.3766447738      -29.1217522926  TIP3      9682            0.0000000000
     53945      9882  TIP3      H1             10.9174021083       17.4795748727      -29.3902925832  TIP3      9682            0.0000000000
     53946      9882  TIP3      H2              9.6808473527       16.8083556220      -29.8673849135  TIP3      9682            0.0000000000
     53947      9883  TIP3      OH2            16.5087638541       16.3469184580      -26.1854606602  TIP3      9683            0.0000000000
     53948      9883  TIP3      H1             16.2468782605       15.5880720500      -26.7652348629  TIP3      9683            0.0000000000
     53949      9883  TIP3      H2             16.3981234723       17.1021446493      -26.7970932437  TIP3      9683            0.0000000000
     53950      9884  TIP3      OH2             2.3348811944       16.7734373014      -30.5375398310  TIP3      9684            0.0000000000
     53951      9884  TIP3      H1              2.0081151331       17.1742119991      -29.7119342074  TIP3      9684            0.0000000000
     53952      9884  TIP3      H2              2.9713464954       16.1201313998      -30.2091660973  TIP3      9684            0.0000000000
     53953      9885  TIP3      OH2            30.1301468728        9.3305025392      -24.4017953732  TIP3      9685            0.0000000000
     53954      9885  TIP3      H1             29.9165967448       10.2744296213      -24.5878629137  TIP3      9685            0.0000000000
     53955      9885  TIP3      H2             29.3043079526        8.9312663603      -24.6935812468  TIP3      9685            0.0000000000
     53956      9886  TIP3      OH2            32.2724462284       11.3635343104      -21.9639006609  TIP3      9686            0.0000000000
     53957      9886  TIP3      H1             31.4066905800       11.4147646864      -22.4039844643  TIP3      9686            0.0000000000
     53958      9886  TIP3      H2             32.4560063145       12.2916160802      -21.7469746691  TIP3      9686            0.0000000000
     53959      9887  TIP3      OH2            18.9211690996        6.2280786827      -25.1147919134  TIP3      9687            0.0000000000
     53960      9887  TIP3      H1             19.0065916189        6.8901968618      -25.8137092902  TIP3      9687            0.0000000000
     53961      9887  TIP3      H2             18.6747261014        5.4318947485      -25.6182731027  TIP3      9687            0.0000000000
     53962      9888  TIP3      OH2            20.0431387563        8.7952733816      -23.4631623200  TIP3      9688            0.0000000000
     53963      9888  TIP3      H1             19.7631629698        8.5147278111      -22.5718019060  TIP3      9688            0.0000000000
     53964      9888  TIP3      H2             20.2363179800        7.9472479508      -23.8782402631  TIP3      9688            0.0000000000
     53965      9889  TIP3      OH2            29.7639656068       16.6815210282      -22.4474181796  TIP3      9689            0.0000000000
     53966      9889  TIP3      H1             30.5448368532       16.2382836841      -22.0247466297  TIP3      9689            0.0000000000
     53967      9889  TIP3      H2             29.5490154985       17.3879890082      -21.7884518924  TIP3      9689            0.0000000000
     53968      9890  TIP3      OH2            30.9100396223        5.3108639410      -19.9831973682  TIP3      9690            0.0000000000
     53969      9890  TIP3      H1             31.6607000448        4.7760377794      -19.6486031568  TIP3      9690            0.0000000000
     53970      9890  TIP3      H2             30.6295557117        4.8578837328      -20.7847012001  TIP3      9690            0.0000000000
     53971      9891  TIP3      OH2            20.6085650090        6.2749223226      -22.2842657325  TIP3      9691            0.0000000000
     53972      9891  TIP3      H1             21.4088885337        5.9429401982      -22.7116641662  TIP3      9691            0.0000000000
     53973      9891  TIP3      H2             19.9422399824        6.2483823476      -22.9807354368  TIP3      9691            0.0000000000
     53974      9892  TIP3      OH2            29.5895224188       11.7817924285      -25.3763264204  TIP3      9692            0.0000000000
     53975      9892  TIP3      H1             29.9257423399       11.9170939718      -26.2649285007  TIP3      9692            0.0000000000
     53976      9892  TIP3      H2             29.3963737251       12.7198502076      -25.1408038410  TIP3      9692            0.0000000000
     53977      9893  TIP3      OH2            19.2663851578       11.6327271736      -27.1690818210  TIP3      9693            0.0000000000
     53978      9893  TIP3      H1             19.5177366417       11.9872139772      -28.0420048655  TIP3      9693            0.0000000000
     53979      9893  TIP3      H2             19.7776754491       12.1509281390      -26.5412045526  TIP3      9693            0.0000000000
     53980      9894  TIP3      OH2            26.4561404885       -0.1379261606      -21.6454088137  TIP3      9694            0.0000000000
     53981      9894  TIP3      H1             26.8330563353       -0.7921696263      -21.0488724978  TIP3      9694            0.0000000000
     53982      9894  TIP3      H2             25.6202662051        0.0704982618      -21.1924654398  TIP3      9694            0.0000000000
     53983      9895  TIP3      OH2            31.7395447278       15.0935369413      -24.6221585067  TIP3      9695            0.0000000000
     53984      9895  TIP3      H1             32.3358714652       14.3100436901      -24.6200005325  TIP3      9695            0.0000000000
     53985      9895  TIP3      H2             32.3312239914       15.7770272750      -24.2334331313  TIP3      9695            0.0000000000
     53986      9896  TIP3      OH2            33.1826141291       12.8769465402      -25.0173196115  TIP3      9696            0.0000000000
     53987      9896  TIP3      H1             33.0657348263       12.4343269411      -25.8805328157  TIP3      9696            0.0000000000
     53988      9896  TIP3      H2             33.0222993323       12.1557872009      -24.3964105255  TIP3      9696            0.0000000000
     53989      9897  TIP3      OH2            32.2002544610        8.9049616775      -26.1003598275  TIP3      9697            0.0000000000
     53990      9897  TIP3      H1             31.4272465427        8.9054003429      -25.4811073311  TIP3      9697            0.0000000000
     53991      9897  TIP3      H2             32.8136790673        8.2967464711      -25.6481993896  TIP3      9697            0.0000000000
     53992      9898  TIP3      OH2            25.0092045936       12.5870214304      -21.6151854938  TIP3      9698            0.0000000000
     53993      9898  TIP3      H1             24.6557586216       12.8251460570      -22.4988419483  TIP3      9698            0.0000000000
     53994      9898  TIP3      H2             25.4083876067       11.7268453437      -21.8095011390  TIP3      9698            0.0000000000
     53995      9899  TIP3      OH2            31.3975438062        7.7382887566      -28.4320103419  TIP3      9699            0.0000000000
     53996      9899  TIP3      H1             31.6579494400        8.1097704431      -27.5562900524  TIP3      9699            0.0000000000
     53997      9899  TIP3      H2             31.7383934511        8.4161669396      -29.0645061216  TIP3      9699            0.0000000000
     53998      9900  TIP3      OH2            28.9775641637       14.5195543505      -25.2158927652  TIP3      9700            0.0000000000
     53999      9900  TIP3      H1             29.6232371156       14.8932797842      -24.5912884333  TIP3      9700            0.0000000000
     54000      9900  TIP3      H2             28.6050830424       15.3258999822      -25.6081308419  TIP3      9700            0.0000000000
     54001      9901  TIP3      OH2            34.9925433673       -0.2266977541      -28.5077076304  TIP3      9701            0.0000000000
     54002      9901  TIP3      H1             34.1036352174       -0.1946498230      -28.8705259055  TIP3      9701            0.0000000000
     54003      9901  TIP3      H2             35.0731342886        0.6411592624      -28.0785332907  TIP3      9701            0.0000000000
     54004      9902  TIP3      OH2            36.0884032891       14.2798932584      -30.0496600042  TIP3      9702            0.0000000000
     54005      9902  TIP3      H1             36.4534107093       15.1811461896      -29.9207254564  TIP3      9702            0.0000000000
     54006      9902  TIP3      H2             36.9192119772       13.7780779811      -29.9855077651  TIP3      9702            0.0000000000
     54007      9903  TIP3      OH2            28.3866516554       17.3919424755      -26.4649170342  TIP3      9703            0.0000000000
     54008      9903  TIP3      H1             28.4555896445       17.4765359751      -27.4427576389  TIP3      9703            0.0000000000
     54009      9903  TIP3      H2             28.3376882944       18.3304386948      -26.1850644132  TIP3      9703            0.0000000000
     54010      9904  TIP3      OH2            22.0928558084       16.4187598195      -24.5190809786  TIP3      9704            0.0000000000
     54011      9904  TIP3      H1             22.5405277042       15.9049286185      -23.8320126234  TIP3      9704            0.0000000000
     54012      9904  TIP3      H2             21.3437430240       15.8262919600      -24.7598190007  TIP3      9704            0.0000000000
     54013      9905  TIP3      OH2            31.3951297871       16.6270248141      -29.3956617701  TIP3      9705            0.0000000000
     54014      9905  TIP3      H1             32.0498004060       15.9867338566      -29.7623662845  TIP3      9705            0.0000000000
     54015      9905  TIP3      H2             31.5891858191       16.6270806156      -28.4355263097  TIP3      9705            0.0000000000
     54016      9906  TIP3      OH2            31.1027576855       16.7317826110      -26.7377929495  TIP3      9706            0.0000000000
     54017      9906  TIP3      H1             30.1590723985       16.8033175483      -26.4964996236  TIP3      9706            0.0000000000
     54018      9906  TIP3      H2             31.3844468489       16.0230610562      -26.1153987912  TIP3      9706            0.0000000000
     54019      9907  TIP3      OH2            24.0180334763        0.2468773589      -20.4201680334  TIP3      9707            0.0000000000
     54020      9907  TIP3      H1             23.1289748434        0.2308898802      -20.7942563704  TIP3      9707            0.0000000000
     54021      9907  TIP3      H2             24.0949159128        1.1653187219      -20.1346178137  TIP3      9707            0.0000000000
     54022      9908  TIP3      OH2            32.5174832300        9.5270401598      -30.0955374092  TIP3      9708            0.0000000000
     54023      9908  TIP3      H1             32.3304689867        9.4061877107      -31.0585247807  TIP3      9708            0.0000000000
     54024      9908  TIP3      H2             33.4963068115        9.6027271907      -30.1109886494  TIP3      9708            0.0000000000
     54025      9909  TIP3      OH2            28.3535317199        2.5767534978      -29.8218221445  TIP3      9709            0.0000000000
     54026      9909  TIP3      H1             27.6978154603        2.6558540226      -29.1310226516  TIP3      9709            0.0000000000
     54027      9909  TIP3      H2             27.8027576771        2.3752753904      -30.5882622732  TIP3      9709            0.0000000000
     54028      9910  TIP3      OH2            25.3281843192        3.4611853740      -30.6100597785  TIP3      9710            0.0000000000
     54029      9910  TIP3      H1             24.6928985555        3.0093153246      -30.0137579701  TIP3      9710            0.0000000000
     54030      9910  TIP3      H2             24.6836279637        4.0492896507      -31.0530900473  TIP3      9710            0.0000000000
     54031      9911  TIP3      OH2            26.2230103035        3.8160453527      -23.7772495655  TIP3      9711            0.0000000000
     54032      9911  TIP3      H1             25.4243593176        3.4634014338      -23.3681287209  TIP3      9711            0.0000000000
     54033      9911  TIP3      H2             26.9047265524        3.1609205010      -23.5572829854  TIP3      9711            0.0000000000
     54034      9912  TIP3      OH2            23.6763197051        5.4818922207      -29.1937598451  TIP3      9712            0.0000000000
     54035      9912  TIP3      H1             22.9917460591        5.4224318774      -29.8767176699  TIP3      9712            0.0000000000
     54036      9912  TIP3      H2             24.2778197861        6.1113396489      -29.6031039113  TIP3      9712            0.0000000000
     54037      9913  TIP3      OH2            28.4377497507        5.8493747414      -22.2431991033  TIP3      9713            0.0000000000
     54038      9913  TIP3      H1             28.1393044122        4.9442204139      -22.3563294930  TIP3      9713            0.0000000000
     54039      9913  TIP3      H2             28.0925830660        6.1077612920      -21.3844178876  TIP3      9713            0.0000000000
     54040      9914  TIP3      OH2            31.1043728988        2.9400466684      -28.9927040753  TIP3      9714            0.0000000000
     54041      9914  TIP3      H1             30.1914908695        3.2409811478      -29.1579933688  TIP3      9714            0.0000000000
     54042      9914  TIP3      H2             31.4422417783        3.6837045690      -28.4328338788  TIP3      9714            0.0000000000
     54043      9915  TIP3      OH2            31.7789619479        5.1767150372      -27.8783455507  TIP3      9715            0.0000000000
     54044      9915  TIP3      H1             32.5723575486        5.3703568096      -27.3300305920  TIP3      9715            0.0000000000
     54045      9915  TIP3      H2             31.6139307183        6.0521511540      -28.2988567599  TIP3      9715            0.0000000000
     54046      9916  TIP3      OH2            28.9688979825       12.3295574908      -29.0571205844  TIP3      9716            0.0000000000
     54047      9916  TIP3      H1             28.8760472947       13.1123576799      -28.4723211926  TIP3      9716            0.0000000000
     54048      9916  TIP3      H2             28.6993932747       11.5952923272      -28.4903576772  TIP3      9716            0.0000000000
     54049      9917  TIP3      OH2            36.5852905742        5.5483823635      -28.1065547908  TIP3      9717            0.0000000000
     54050      9917  TIP3      H1             35.9723662842        5.3176882046      -28.8285586553  TIP3      9717            0.0000000000
     54051      9917  TIP3      H2             36.7411789095        6.4890576332      -28.3140923302  TIP3      9717            0.0000000000
     54052      9918  TIP3      OH2            34.4329676534       14.5563907437      -27.6249388935  TIP3      9718            0.0000000000
     54053      9918  TIP3      H1             34.1118343581       13.6544110297      -27.4624892251  TIP3      9718            0.0000000000
     54054      9918  TIP3      H2             34.9429779758       14.4591258732      -28.4522887363  TIP3      9718            0.0000000000
     54055      9919  TIP3      OH2            24.0586559647       13.6842782374      -23.9781736825  TIP3      9719            0.0000000000
     54056      9919  TIP3      H1             24.8671798611       14.2113311906      -24.0363445862  TIP3      9719            0.0000000000
     54057      9919  TIP3      H2             23.9349813212       13.4407035973      -24.9113726940  TIP3      9719            0.0000000000
     54058      9920  TIP3      OH2            20.6273663648        8.4978432626      -29.8465212305  TIP3      9720            0.0000000000
     54059      9920  TIP3      H1             21.1205761768        9.0531314768      -29.1970278426  TIP3      9720            0.0000000000
     54060      9920  TIP3      H2             19.6952160774        8.6231469923      -29.5509280035  TIP3      9720            0.0000000000
     54061      9921  TIP3      OH2            24.6154212179       16.5695211889      -25.5087988609  TIP3      9721            0.0000000000
     54062      9921  TIP3      H1             23.6747439264       16.6505061118      -25.2624179590  TIP3      9721            0.0000000000
     54063      9921  TIP3      H2             25.0275353398       17.2371701092      -24.9302424172  TIP3      9721            0.0000000000
     54064      9922  TIP3      OH2            32.6275874772       12.7433435629      -29.6382908278  TIP3      9722            0.0000000000
     54065      9922  TIP3      H1             32.7634406344       12.2018232751      -28.8309515245  TIP3      9722            0.0000000000
     54066      9922  TIP3      H2             31.7149935740       12.4915357329      -29.8406120851  TIP3      9722            0.0000000000
     54067      9923  TIP3      OH2            37.0624335016       16.7507019277      -29.3148184809  TIP3      9723            0.0000000000
     54068      9923  TIP3      H1             37.2456547922       17.5262771081      -29.8788250244  TIP3      9723            0.0000000000
     54069      9923  TIP3      H2             36.2310555728       17.0711594680      -28.9213657481  TIP3      9723            0.0000000000
     54070      9924  TIP3      OH2            33.3574346979       11.2419000804      -27.3459862616  TIP3      9724            0.0000000000
     54071      9924  TIP3      H1             33.0009360909       10.3576049538      -27.1193406066  TIP3      9724            0.0000000000
     54072      9924  TIP3      H2             34.3184485780       11.0516865663      -27.4392235685  TIP3      9724            0.0000000000
     54073      9925  TIP3      OH2            26.4557631022       13.7122778723      -31.1507320369  TIP3      9725            0.0000000000
     54074      9925  TIP3      H1             26.3131243760       13.3983080488      -32.0573858321  TIP3      9725            0.0000000000
     54075      9925  TIP3      H2             25.9719059311       13.0332766805      -30.6465585350  TIP3      9725            0.0000000000
     54076      9926  TIP3      OH2            24.9797031114       12.7533706490      -28.5910590702  TIP3      9726            0.0000000000
     54077      9926  TIP3      H1             25.7068817172       12.1922933852      -28.2753510960  TIP3      9726            0.0000000000
     54078      9926  TIP3      H2             25.2645517090       13.6467995109      -28.2893569223  TIP3      9726            0.0000000000
     54079      9927  TIP3      OH2            21.9446013009       10.2449918827      -28.3736831335  TIP3      9727            0.0000000000
     54080      9927  TIP3      H1             21.4574768788       10.3007247304      -27.5389820468  TIP3      9727            0.0000000000
     54081      9927  TIP3      H2             22.8514887224       10.3719782497      -28.0488866537  TIP3      9727            0.0000000000
     54082      9928  TIP3      OH2            28.2839817944       14.7982698142      -27.9420105572  TIP3      9728            0.0000000000
     54083      9928  TIP3      H1             27.3813247090       14.9593418928      -27.5835440228  TIP3      9728            0.0000000000
     54084      9928  TIP3      H2             28.4993514132       15.6465075711      -28.3530047166  TIP3      9728            0.0000000000
     54085      9929  TIP3      OH2            25.5695166311       15.3646580474      -27.9016970709  TIP3      9729            0.0000000000
     54086      9929  TIP3      H1             25.6482646497       16.1003682279      -28.5526718582  TIP3      9729            0.0000000000
     54087      9929  TIP3      H2             25.1684202551       15.8732281652      -27.1595975139  TIP3      9729            0.0000000000
     54088      9930  TIP3      OH2            23.5605408111        2.4639515077      -28.6462270656  TIP3      9730            0.0000000000
     54089      9930  TIP3      H1             23.3575172260        3.3969552808      -28.4431633899  TIP3      9730            0.0000000000
     54090      9930  TIP3      H2             24.1720393807        2.2689166262      -27.9395153823  TIP3      9730            0.0000000000
     54091      9931  TIP3      OH2            33.0588139622        7.1926997301      -22.1047531170  TIP3      9731            0.0000000000
     54092      9931  TIP3      H1             32.2787339426        7.0159135871      -21.5606308746  TIP3      9731            0.0000000000
     54093      9931  TIP3      H2             33.7155286159        6.6305897790      -21.6564674271  TIP3      9731            0.0000000000
     54094      9932  TIP3      OH2            22.2254540626       12.9363089453      -29.6274083109  TIP3      9732            0.0000000000
     54095      9932  TIP3      H1             22.9776737277       13.2113838027      -29.0792004186  TIP3      9732            0.0000000000
     54096      9932  TIP3      H2             22.6549183492       12.2110938033      -30.1110105462  TIP3      9732            0.0000000000
     54097      9933  TIP3      OH2            20.9293440095        5.6639825169      -30.3674105753  TIP3      9733            0.0000000000
     54098      9933  TIP3      H1             21.0813584425        6.4778215513      -29.8491715996  TIP3      9733            0.0000000000
     54099      9933  TIP3      H2             20.0729997835        5.3559665804      -30.0266989692  TIP3      9733            0.0000000000
     54100      9934  TIP3      OH2            20.3477702521       14.5090721546      -25.1072663092  TIP3      9734            0.0000000000
     54101      9934  TIP3      H1             19.5449889238       14.8262873258      -25.5606613517  TIP3      9734            0.0000000000
     54102      9934  TIP3      H2             20.8564068792       14.2877753754      -25.9092880234  TIP3      9734            0.0000000000
     54103      9935  TIP3      OH2            28.4590189359       15.7987899890      -31.0712073842  TIP3      9735            0.0000000000
     54104      9935  TIP3      H1             28.0315125040       14.9199438830      -30.9419004730  TIP3      9735            0.0000000000
     54105      9935  TIP3      H2             29.3193976222       15.5715630965      -31.4892886843  TIP3      9735            0.0000000000
     54106      9936  TIP3      OH2            33.1184241150       15.1110998266      -30.8804865771  TIP3      9736            0.0000000000
     54107      9936  TIP3      H1             33.2558722391       14.3222378033      -30.3165707390  TIP3      9736            0.0000000000
     54108      9936  TIP3      H2             33.9313093093       15.1082080853      -31.4223977462  TIP3      9736            0.0000000000
     54109      9937  TIP3      OH2            23.5841078538       11.0660934304      -31.3699712509  TIP3      9737            0.0000000000
     54110      9937  TIP3      H1             23.2551889448       10.2633473685      -30.9448889832  TIP3      9737            0.0000000000
     54111      9937  TIP3      H2             24.4975703650       10.8375965753      -31.6383348057  TIP3      9737            0.0000000000
     54112      9938  TIP3      OH2            29.5888568702       12.2408651239      -31.5978593848  TIP3      9738            0.0000000000
     54113      9938  TIP3      H1             29.2788633055       12.1832679351      -30.6577339808  TIP3      9738            0.0000000000
     54114      9938  TIP3      H2             29.4935343322       11.2963776416      -31.8227106153  TIP3      9738            0.0000000000
     54115      9939  TIP3      OH2            26.4201113285        7.1242897128      -30.4525886545  TIP3      9739            0.0000000000
     54116      9939  TIP3      H1             25.6924179498        7.1417964983      -31.0978413814  TIP3      9739            0.0000000000
     54117      9939  TIP3      H2             27.0962408563        7.5986770401      -30.9534446333  TIP3      9739            0.0000000000
     54118      9940  TIP3      OH2            35.3080026889        9.4827850014      -30.9941340822  TIP3      9740            0.0000000000
     54119      9940  TIP3      H1             35.0894898553        9.2601490421      -31.9245016625  TIP3      9740            0.0000000000
     54120      9940  TIP3      H2             35.3993139197       10.4657570726      -31.0388444407  TIP3      9740            0.0000000000
     54121      9941  TIP3      OH2            25.9327876589       17.6700576011      -29.3070849987  TIP3      9741            0.0000000000
     54122      9941  TIP3      H1             26.8348341788       17.7743257940      -28.9729652370  TIP3      9741            0.0000000000
     54123      9941  TIP3      H2             25.9452854272       18.3061363775      -30.0464561453  TIP3      9741            0.0000000000
     54124      9942  TIP3      OH2            19.4757919454       12.4564468504      -29.8418730975  TIP3      9742            0.0000000000
     54125      9942  TIP3      H1             20.4497057605       12.5382212075      -29.8277917601  TIP3      9742            0.0000000000
     54126      9942  TIP3      H2             19.3328840954       11.9377555503      -30.6660258868  TIP3      9742            0.0000000000
     54127      9943  TIP3      OH2            18.6398773092       17.3663154282      -24.9197750261  TIP3      9743            0.0000000000
     54128      9943  TIP3      H1             17.8153197239       17.0238700155      -25.3364359231  TIP3      9743            0.0000000000
     54129      9943  TIP3      H2             18.6235997643       16.9479739263      -24.0607876593  TIP3      9743            0.0000000000
     54130      9944  TIP3      OH2            35.9964457218       10.6353042618      -27.1120411237  TIP3      9744            0.0000000000
     54131      9944  TIP3      H1             36.8280701633       11.0463732396      -26.8491175212  TIP3      9744            0.0000000000
     54132      9944  TIP3      H2             35.9897504952        9.8418306340      -26.5286502324  TIP3      9744            0.0000000000
     54133      9945  TIP3      OH2            36.3459240424        8.7045522141      -25.2051311386  TIP3      9745            0.0000000000
     54134      9945  TIP3      H1             35.5154225164        8.2113833426      -25.0148701224  TIP3      9745            0.0000000000
     54135      9945  TIP3      H2             36.5822232937        8.9797298609      -24.3086106925  TIP3      9745            0.0000000000
     54136      9946  TIP3      OH2            35.5003266297       11.1921037489      -19.8237322700  TIP3      9746            0.0000000000
     54137      9946  TIP3      H1             36.3037909918       10.6720729455      -19.5873263061  TIP3      9746            0.0000000000
     54138      9946  TIP3      H2             35.8086586908       12.1018994223      -19.9023152462  TIP3      9746            0.0000000000
     54139      9947  TIP3      OH2            36.5719494248        8.4244924139      -28.6726399331  TIP3      9747            0.0000000000
     54140      9947  TIP3      H1             36.1220984093        8.6782276355      -29.5023176378  TIP3      9747            0.0000000000
     54141      9947  TIP3      H2             36.6305758349        9.2929685180      -28.2412054118  TIP3      9747            0.0000000000
     54142      9948  TIP3      OH2            34.8273668540        5.4767713966      -30.3715557706  TIP3      9748            0.0000000000
     54143      9948  TIP3      H1             35.0498593742        6.1796267594      -30.9969099752  TIP3      9748            0.0000000000
     54144      9948  TIP3      H2             34.5512637053        4.7489761249      -30.9611864261  TIP3      9748            0.0000000000
     54145      9949  TIP3      OH2            34.0935302307        7.1785835155      -24.6946696475  TIP3      9749            0.0000000000
     54146      9949  TIP3      H1             34.0278231346        6.3390720057      -25.2098809019  TIP3      9749            0.0000000000
     54147      9949  TIP3      H2             33.5661912053        6.9956895096      -23.8900122820  TIP3      9749            0.0000000000
     54148      9950  TIP3      OH2            34.1528515366        3.0716103121      -31.4548362706  TIP3      9750            0.0000000000
     54149      9950  TIP3      H1             34.8648049807        2.7419114152      -30.8949480524  TIP3      9750            0.0000000000
     54150      9950  TIP3      H2             33.3591586194        2.9464981812      -30.9232899056  TIP3      9750            0.0000000000
     54151      9951  TIP3      OH2            34.0702068753        5.0116900348      -26.4543228262  TIP3      9751            0.0000000000
     54152      9951  TIP3      H1             34.0785760134        4.1923785130      -25.9384082236  TIP3      9751            0.0000000000
     54153      9951  TIP3      H2             34.9673074841        4.9720503155      -26.8180755473  TIP3      9751            0.0000000000
     54154      9952  TIP3      OH2            34.3313834228        2.2898066700      -25.9858537742  TIP3      9752            0.0000000000
     54155      9952  TIP3      H1             34.4471960710        1.8669754141      -25.1009340609  TIP3      9752            0.0000000000
     54156      9952  TIP3      H2             33.3582093752        2.3640692087      -26.0125222695  TIP3      9752            0.0000000000
     54157      9953  TIP3      OH2            36.7664948097        2.0030104464      -29.4730712935  TIP3      9753            0.0000000000
     54158      9953  TIP3      H1             37.0283516248        1.2148164735      -29.9828641543  TIP3      9753            0.0000000000
     54159      9953  TIP3      H2             37.2424561236        2.7245022918      -29.9198042975  TIP3      9753            0.0000000000
     54160      9954  TIP3      OH2            33.5006324074       17.0763166163      -24.2433940628  TIP3      9754            0.0000000000
     54161      9954  TIP3      H1             34.0814658358       16.9453620532      -25.0139212735  TIP3      9754            0.0000000000
     54162      9954  TIP3      H2             34.0368738365       17.6674187207      -23.6778406539  TIP3      9754            0.0000000000
     54163      9955  TIP3      OH2            25.0412475792       15.3881244713      -21.2939914182  TIP3      9755            0.0000000000
     54164      9955  TIP3      H1             25.1100737532       14.4187149355      -21.3062579936  TIP3      9755            0.0000000000
     54165      9955  TIP3      H2             25.0303433477       15.5614313571      -20.3426924042  TIP3      9755            0.0000000000
     54166      9956  TIP3      OH2            34.9842400350        0.8142464299      -23.7371135716  TIP3      9756            0.0000000000
     54167      9956  TIP3      H1             35.6522199790        0.1184166418      -23.8849595686  TIP3      9756            0.0000000000
     54168      9956  TIP3      H2             35.5175968117        1.4118122610      -23.1907413920  TIP3      9756            0.0000000000
     54169      9957  TIP3      OH2            26.5631289169        0.1775737860      -24.6257906179  TIP3      9757            0.0000000000
     54170      9957  TIP3      H1             27.4706723339        0.5033259381      -24.3892245892  TIP3      9757            0.0000000000
     54171      9957  TIP3      H2             26.1314422457        0.2282725310      -23.7664939103  TIP3      9757            0.0000000000
     54172      9958  TIP3      OH2            19.6780921647       15.6619782085      -27.5093185851  TIP3      9758            0.0000000000
     54173      9958  TIP3      H1             18.7361803349       15.7844891276      -27.6984974371  TIP3      9758            0.0000000000
     54174      9958  TIP3      H2             20.0028679773       16.5419071382      -27.7711502283  TIP3      9758            0.0000000000
     54175      9959  TIP3      OH2            21.3303676830        2.1311966796      -30.3003774403  TIP3      9759            0.0000000000
     54176      9959  TIP3      H1             21.8941085367        1.4446221761      -30.7014828374  TIP3      9759            0.0000000000
     54177      9959  TIP3      H2             21.6613864384        2.1781263762      -29.3852648989  TIP3      9759            0.0000000000
     54178      9960  TIP3      OH2            28.7881619994       17.4269793283      -29.0690317958  TIP3      9760            0.0000000000
     54179      9960  TIP3      H1             29.7479868994       17.2773428164      -29.2437131583  TIP3      9760            0.0000000000
     54180      9960  TIP3      H2             28.4467894719       16.8992504715      -29.8318178569  TIP3      9760            0.0000000000
     54181      9961  TIP3      OH2            35.4144830283       16.6004374753      -26.0801334125  TIP3      9761            0.0000000000
     54182      9961  TIP3      H1             35.0762178736       15.7807789911      -26.4925802380  TIP3      9761            0.0000000000
     54183      9961  TIP3      H2             35.5025152492       17.1330999485      -26.8921713720  TIP3      9761            0.0000000000
     54184      9962  TIP3      OH2            21.2711446358       16.6469588446      -30.4951388011  TIP3      9762            0.0000000000
     54185      9962  TIP3      H1             21.0693401758       16.9897131014      -29.6086898112  TIP3      9762            0.0000000000
     54186      9962  TIP3      H2             22.0589666139       16.1104207966      -30.3231621662  TIP3      9762            0.0000000000
     54187      9963  TIP3      OH2            37.4818932388        6.1273321669      -25.1539090256  TIP3      9763            0.0000000000
     54188      9963  TIP3      H1             37.2399891318        7.0698684505      -25.1616813112  TIP3      9763            0.0000000000
     54189      9963  TIP3      H2             36.9435296150        5.7883592788      -25.8766631142  TIP3      9763            0.0000000000
     54190      9964  TIP3      OH2            37.7455208178       14.2127530473      -23.6747735632  TIP3      9764            0.0000000000
     54191      9964  TIP3      H1             38.1535055815       13.3796332705      -23.4087217860  TIP3      9764            0.0000000000
     54192      9964  TIP3      H2             36.9089345149       13.9575461810      -24.0961335591  TIP3      9764            0.0000000000
     54193      9965  TIP3      OH2            37.0174451001        2.9269886024      -23.8553084333  TIP3      9765            0.0000000000
     54194      9965  TIP3      H1             37.8079309142        3.3444790285      -23.4835727183  TIP3      9765            0.0000000000
     54195      9965  TIP3      H2             37.1997803861        2.8976078570      -24.8106993734  TIP3      9765            0.0000000000
     54196      9966  TIP3      OH2            36.3862330363       18.4979632496      -24.3557770542  TIP3      9766            0.0000000000
     54197      9966  TIP3      H1             36.1175844727       17.8898152817      -25.0739694902  TIP3      9766            0.0000000000
     54198      9966  TIP3      H2             36.4843952276       17.8337603487      -23.6354387795  TIP3      9766            0.0000000000
     54199      9967  TIP3      OH2            37.1964383238       16.6790398459      -22.6722528325  TIP3      9767            0.0000000000
     54200      9967  TIP3      H1             37.3717649274       15.8114726880      -23.0878643778  TIP3      9767            0.0000000000
     54201      9967  TIP3      H2             38.1134864630       16.9722015275      -22.5496581679  TIP3      9767            0.0000000000
     54202      9968  TIP3      OH2            37.3149331917        9.2932571512      -19.8292713217  TIP3      9768            0.0000000000
     54203      9968  TIP3      H1             36.9586763747        8.5758862413      -20.3739219799  TIP3      9768            0.0000000000
     54204      9968  TIP3      H2             37.9941709627        8.7642048331      -19.3695256245  TIP3      9768            0.0000000000
     54205      9969  TIP3      OH2            36.9076965222        2.3036762533      -26.7776225571  TIP3      9769            0.0000000000
     54206      9969  TIP3      H1             35.9611495223        2.3009392857      -26.5023094643  TIP3      9769            0.0000000000
     54207      9969  TIP3      H2             36.8369752341        2.1802538057      -27.7517721510  TIP3      9769            0.0000000000
     54208      9970  TIP3      OH2           -26.1727686981       28.1246351294      -24.3880473078  TIP3      9770            0.0000000000
     54209      9970  TIP3      H1            -26.1239973214       29.0910735906      -24.3148044593  TIP3      9770            0.0000000000
     54210      9970  TIP3      H2            -26.8866936136       28.0512008357      -25.0518786645  TIP3      9770            0.0000000000
     54211      9971  TIP3      OH2           -23.9794774643       30.7754947919      -22.3476379631  TIP3      9771            0.0000000000
     54212      9971  TIP3      H1            -24.2082887699       29.8806059881      -22.0513895333  TIP3      9771            0.0000000000
     54213      9971  TIP3      H2            -23.2418750308       30.9658912745      -21.7527936974  TIP3      9771            0.0000000000
     54214      9972  TIP3      OH2           -36.9889394052       24.9362916779      -26.1143111353  TIP3      9772            0.0000000000
     54215      9972  TIP3      H1            -36.8136588516       25.5373018444      -25.3543718860  TIP3      9772            0.0000000000
     54216      9972  TIP3      H2            -37.9613510279       24.8388684589      -26.0087028237  TIP3      9772            0.0000000000
     54217      9973  TIP3      OH2           -36.6346334640       26.7430503254      -24.0194665298  TIP3      9773            0.0000000000
     54218      9973  TIP3      H1            -36.3231969655       26.0204190737      -23.4228513958  TIP3      9773            0.0000000000
     54219      9973  TIP3      H2            -36.5161403630       27.5126688117      -23.4440007297  TIP3      9773            0.0000000000
     54220      9974  TIP3      OH2           -25.5017983163       24.1437166467      -20.0543166081  TIP3      9774            0.0000000000
     54221      9974  TIP3      H1            -25.5522231443       23.1579771700      -19.9231062659  TIP3      9774            0.0000000000
     54222      9974  TIP3      H2            -26.3050035090       24.2583030851      -20.5719618623  TIP3      9774            0.0000000000
     54223      9975  TIP3      OH2           -32.7410884366       22.3344037298      -22.9369553577  TIP3      9775            0.0000000000
     54224      9975  TIP3      H1            -33.1014779820       23.1394803763      -23.3515846405  TIP3      9775            0.0000000000
     54225      9975  TIP3      H2            -33.1658364840       21.6452217334      -23.4644866276  TIP3      9775            0.0000000000
     54226      9976  TIP3      OH2           -24.7257288885       22.5612611360      -25.0594830409  TIP3      9776            0.0000000000
     54227      9976  TIP3      H1            -24.1561714018       22.2280991830      -24.3475687668  TIP3      9776            0.0000000000
     54228      9976  TIP3      H2            -24.2447579725       23.3893271583      -25.2390185973  TIP3      9776            0.0000000000
     54229      9977  TIP3      OH2           -36.0011343763       24.5421943019      -22.5808158742  TIP3      9777            0.0000000000
     54230      9977  TIP3      H1            -35.3882276314       24.3248889742      -21.8605228843  TIP3      9777            0.0000000000
     54231      9977  TIP3      H2            -35.5801837538       24.1065728868      -23.3573068180  TIP3      9777            0.0000000000
     54232      9978  TIP3      OH2           -26.7734953828       30.6190689659      -25.4553027332  TIP3      9778            0.0000000000
     54233      9978  TIP3      H1            -26.9617880858       30.5750052807      -26.4047382084  TIP3      9778            0.0000000000
     54234      9978  TIP3      H2            -26.5645021335       31.5546446800      -25.3208027365  TIP3      9778            0.0000000000
     54235      9979  TIP3      OH2           -23.3076896533       22.1757376010      -22.8054145935  TIP3      9779            0.0000000000
     54236      9979  TIP3      H1            -24.1245698284       21.8929460736      -22.3533483736  TIP3      9779            0.0000000000
     54237      9979  TIP3      H2            -22.9108123266       21.3191115499      -23.0093986925  TIP3      9779            0.0000000000
     54238      9980  TIP3      OH2           -34.2456482655       23.0636049454      -20.7618661539  TIP3      9780            0.0000000000
     54239      9980  TIP3      H1            -33.9403237101       22.7273167938      -19.9020752455  TIP3      9780            0.0000000000
     54240      9980  TIP3      H2            -33.6432752691       22.5554254740      -21.3439922944  TIP3      9780            0.0000000000
     54241      9981  TIP3      OH2           -36.5417501799       30.7864266126      -27.2094291989  TIP3      9781            0.0000000000
     54242      9981  TIP3      H1            -36.7817705098       31.5757412697      -27.7441331187  TIP3      9781            0.0000000000
     54243      9981  TIP3      H2            -36.5585052976       31.1452102454      -26.2945846178  TIP3      9781            0.0000000000
     54244      9982  TIP3      OH2           -23.6463641412       31.7740872352      -24.9887555864  TIP3      9782            0.0000000000
     54245      9982  TIP3      H1            -23.9409282298       31.0444295119      -25.5594213775  TIP3      9782            0.0000000000
     54246      9982  TIP3      H2            -23.8461867864       31.4478813162      -24.0877609429  TIP3      9782            0.0000000000
     54247      9983  TIP3      OH2           -27.5064282493       27.5539408247      -26.7999331570  TIP3      9783            0.0000000000
     54248      9983  TIP3      H1            -28.2114934703       28.1768581501      -27.0801538386  TIP3      9783            0.0000000000
     54249      9983  TIP3      H2            -26.7899087726       27.7789352251      -27.4301657244  TIP3      9783            0.0000000000
     54250      9984  TIP3      OH2           -27.8571638082       26.4782185129      -29.9771063213  TIP3      9784            0.0000000000
     54251      9984  TIP3      H1            -27.1973008347       26.9363014608      -29.4184547548  TIP3      9784            0.0000000000
     54252      9984  TIP3      H2            -27.5695615105       25.5619989018      -29.8540116289  TIP3      9784            0.0000000000
     54253      9985  TIP3      OH2           -23.9175019700       27.2224188147      -26.0206746064  TIP3      9785            0.0000000000
     54254      9985  TIP3      H1            -24.6148605220       27.6215229426      -25.4498329890  TIP3      9785            0.0000000000
     54255      9985  TIP3      H2            -23.2681031713       26.8825890280      -25.3741791952  TIP3      9785            0.0000000000
     54256      9986  TIP3      OH2           -32.1222924574       28.1522467672      -24.2635637439  TIP3      9786            0.0000000000
     54257      9986  TIP3      H1            -32.8257718819       28.0407543874      -24.9510062755  TIP3      9786            0.0000000000
     54258      9986  TIP3      H2            -31.7829725773       27.2446827907      -24.2566327047  TIP3      9786            0.0000000000
     54259      9987  TIP3      OH2           -25.3958770120       27.2163473124      -28.4638015640  TIP3      9787            0.0000000000
     54260      9987  TIP3      H1            -24.8593790485       27.0604762630      -27.6506702582  TIP3      9787            0.0000000000
     54261      9987  TIP3      H2            -24.6906206964       27.4516143785      -29.1161548918  TIP3      9787            0.0000000000
     54262      9988  TIP3      OH2           -27.4243684626       34.3569325914      -24.8799701332  TIP3      9788            0.0000000000
     54263      9988  TIP3      H1            -27.9123651295       33.9906149349      -24.1326862955  TIP3      9788            0.0000000000
     54264      9988  TIP3      H2            -28.0537136653       35.0721512988      -25.1690128187  TIP3      9788            0.0000000000
     54265      9989  TIP3      OH2           -21.4698574006       18.4580061873      -28.0355355457  TIP3      9789            0.0000000000
     54266      9989  TIP3      H1            -22.4396742934       18.5861552297      -27.9693866659  TIP3      9789            0.0000000000
     54267      9989  TIP3      H2            -21.1646177125       19.2934608180      -28.4474528451  TIP3      9789            0.0000000000
     54268      9990  TIP3      OH2           -33.4809015830       27.2283990409      -26.3556203332  TIP3      9790            0.0000000000
     54269      9990  TIP3      H1            -34.0704847364       27.8595259191      -26.8256024380  TIP3      9790            0.0000000000
     54270      9990  TIP3      H2            -33.9574230512       26.3905419773      -26.4186590956  TIP3      9790            0.0000000000
     54271      9991  TIP3      OH2           -20.4478018798       32.8764668968      -29.8404162616  TIP3      9791            0.0000000000
     54272      9991  TIP3      H1            -20.1732109901       33.8153062513      -29.8005509610  TIP3      9791            0.0000000000
     54273      9991  TIP3      H2            -19.5980399573       32.4079192121      -29.6691127581  TIP3      9791            0.0000000000
     54274      9992  TIP3      OH2           -37.6194273535       31.5554667775      -21.2051990299  TIP3      9792            0.0000000000
     54275      9992  TIP3      H1            -36.8577231811       32.0277128491      -20.8613807774  TIP3      9792            0.0000000000
     54276      9992  TIP3      H2            -38.3223093711       32.0146628084      -20.7160261722  TIP3      9792            0.0000000000
     54277      9993  TIP3      OH2           -25.0342681752       35.5258680700      -29.2311867671  TIP3      9793            0.0000000000
     54278      9993  TIP3      H1            -24.2910264667       34.9410087060      -29.5065719613  TIP3      9793            0.0000000000
     54279      9993  TIP3      H2            -25.1080384537       35.3025765956      -28.2716123501  TIP3      9793            0.0000000000
     54280      9994  TIP3      OH2           -25.5755083731       35.2876108850      -26.6878224164  TIP3      9794            0.0000000000
     54281      9994  TIP3      H1            -26.4820304121       35.2914480877      -26.3414587029  TIP3      9794            0.0000000000
     54282      9994  TIP3      H2            -25.1542059334       34.6689063293      -26.0681342002  TIP3      9794            0.0000000000
     54283      9995  TIP3      OH2           -23.4971823798       28.2031121807      -30.0528959745  TIP3      9795            0.0000000000
     54284      9995  TIP3      H1            -23.7920461697       28.4327317155      -30.9590759217  TIP3      9795            0.0000000000
     54285      9995  TIP3      H2            -22.5272952355       28.3384277541      -30.1147095848  TIP3      9795            0.0000000000
     54286      9996  TIP3      OH2           -28.1110897079       21.8137794904      -30.1656654305  TIP3      9796            0.0000000000
     54287      9996  TIP3      H1            -28.4257469687       21.7619835074      -29.2411842799  TIP3      9796            0.0000000000
     54288      9996  TIP3      H2            -28.5899039172       21.0476318847      -30.5115212689  TIP3      9796            0.0000000000
     54289      9997  TIP3      OH2           -32.7174233696       24.6926838127      -24.5380776544  TIP3      9797            0.0000000000
     54290      9997  TIP3      H1            -33.5552582779       24.3902562227      -24.9367666167  TIP3      9797            0.0000000000
     54291      9997  TIP3      H2            -32.0992463662       24.4541524779      -25.2565256763  TIP3      9797            0.0000000000
     54292      9998  TIP3      OH2           -26.9636703398       25.2220640381      -25.8679385061  TIP3      9798            0.0000000000
     54293      9998  TIP3      H1            -27.1716434651       26.1141809876      -26.2520144126  TIP3      9798            0.0000000000
     54294      9998  TIP3      H2            -26.2717294470       24.9396410873      -26.5043207682  TIP3      9798            0.0000000000
     54295      9999  TIP3      OH2           -26.7592975939       25.4030997444      -22.7981005445  TIP3      9799            0.0000000000
     54296      9999  TIP3      H1            -26.4322341314       26.0926972511      -23.4100554292  TIP3      9799            0.0000000000
     54297      9999  TIP3      H2            -26.4207056224       24.6333364697      -23.2649767536  TIP3      9799            0.0000000000
     54298     10000  TIP3      OH2           -31.8784755305       22.0442594539      -30.8917098210  TIP3      9800            0.0000000000
     54299     10000  TIP3      H1            -32.2495754526       21.5477065979      -30.1267415519  TIP3      9800            0.0000000000
     54300     10000  TIP3      H2            -32.5610220338       22.6880183594      -31.1112557449  TIP3      9800            0.0000000000
     54301     10001  TIP3      OH2           -37.7787274176       21.6956519062      -23.4427430646  TIP3      9801            0.0000000000
     54302     10001  TIP3      H1            -37.0063620320       21.6749778535      -22.8544799466  TIP3      9801            0.0000000000
     54303     10001  TIP3      H2            -37.4519152241       21.9454986893      -24.3135883917  TIP3      9801            0.0000000000
     54304     10002  TIP3      OH2           -37.5043061440       23.1482759170      -28.1351532551  TIP3      9802            0.0000000000
     54305     10002  TIP3      H1            -37.1340595922       23.4642136892      -28.9846308516  TIP3      9802            0.0000000000
     54306     10002  TIP3      H2            -37.1023328080       23.7858262858      -27.5006205365  TIP3      9802            0.0000000000
     54307     10003  TIP3      OH2           -29.7753429270       22.3877604615      -23.5175323867  TIP3      9803            0.0000000000
     54308     10003  TIP3      H1            -30.7403840896       22.2158132510      -23.4672513683  TIP3      9803            0.0000000000
     54309     10003  TIP3      H2            -29.5679181265       21.9881542056      -22.6471013365  TIP3      9803            0.0000000000
     54310     10004  TIP3      OH2           -35.1364908278       23.5368410783      -24.9114909363  TIP3      9804            0.0000000000
     54311     10004  TIP3      H1            -35.8009314440       23.8399115448      -25.5640362648  TIP3      9804            0.0000000000
     54312     10004  TIP3      H2            -34.9772065228       22.5975250450      -25.1782070358  TIP3      9804            0.0000000000
     54313     10005  TIP3      OH2           -31.7410594982       23.7922070510      -26.9320872969  TIP3      9805            0.0000000000
     54314     10005  TIP3      H1            -30.8011160187       23.7292989299      -27.1727655808  TIP3      9805            0.0000000000
     54315     10005  TIP3      H2            -32.0649379684       24.3202894305      -27.7035284525  TIP3      9805            0.0000000000
     54316     10006  TIP3      OH2           -32.4186617532       24.9750728908      -29.2282166579  TIP3      9806            0.0000000000
     54317     10006  TIP3      H1            -33.0401693571       24.4702821597      -29.7637483109  TIP3      9806            0.0000000000
     54318     10006  TIP3      H2            -31.7949316119       25.3051173656      -29.9200903444  TIP3      9806            0.0000000000
     54319     10007  TIP3      OH2           -34.1114915485       21.1393004696      -25.1672687375  TIP3      9807            0.0000000000
     54320     10007  TIP3      H1            -34.5260497348       20.2840679347      -24.9178110187  TIP3      9807            0.0000000000
     54321     10007  TIP3      H2            -33.2651336627       20.8567176308      -25.5228300533  TIP3      9807            0.0000000000
     54322     10008  TIP3      OH2           -29.3866681137       29.2931987997      -27.3302707111  TIP3      9808            0.0000000000
     54323     10008  TIP3      H1            -30.1051494380       28.8134337836      -27.7902057148  TIP3      9808            0.0000000000
     54324     10008  TIP3      H2            -29.8926242340       29.8300357228      -26.6772365955  TIP3      9808            0.0000000000
     54325     10009  TIP3      OH2           -25.6830992561       22.4076743850      -29.2879025390  TIP3      9809            0.0000000000
     54326     10009  TIP3      H1            -26.4976255896       22.4215430989      -29.8338770564  TIP3      9809            0.0000000000
     54327     10009  TIP3      H2            -25.6060197733       23.3489211965      -29.0354808815  TIP3      9809            0.0000000000
     54328     10010  TIP3      OH2           -25.2173531344       24.6108293767      -27.8667616356  TIP3      9810            0.0000000000
     54329     10010  TIP3      H1            -24.4324130321       24.2507383763      -27.4346753124  TIP3      9810            0.0000000000
     54330     10010  TIP3      H2            -24.8203988163       25.2300182081      -28.5104894627  TIP3      9810            0.0000000000
     54331     10011  TIP3      OH2           -27.7064684730       30.9061174423      -28.6528954054  TIP3      9811            0.0000000000
     54332     10011  TIP3      H1            -28.0809969760       31.7891519516      -28.4264825531  TIP3      9811            0.0000000000
     54333     10011  TIP3      H2            -28.2870713277       30.3315796750      -28.1096874428  TIP3      9811            0.0000000000
     54334     10012  TIP3      OH2           -20.1440774192       24.2957707655      -27.9290373142  TIP3      9812            0.0000000000
     54335     10012  TIP3      H1            -20.2423605565       23.9897102315      -28.8539921429  TIP3      9812            0.0000000000
     54336     10012  TIP3      H2            -19.9571642412       25.2500431330      -28.0771334590  TIP3      9812            0.0000000000
     54337     10013  TIP3      OH2           -22.2052741045       33.1818663531      -27.6051237509  TIP3      9813            0.0000000000
     54338     10013  TIP3      H1            -22.5550298412       32.4965354646      -27.0248489642  TIP3      9813            0.0000000000
     54339     10013  TIP3      H2            -21.6597848996       32.7050852323      -28.2606057753  TIP3      9813            0.0000000000
     54340     10014  TIP3      OH2           -24.5435658695       28.0293513008      -20.9476218006  TIP3      9814            0.0000000000
     54341     10014  TIP3      H1            -25.3595006572       28.5632138380      -20.8666990804  TIP3      9814            0.0000000000
     54342     10014  TIP3      H2            -24.3406584609       27.9150864274      -20.0076582486  TIP3      9814            0.0000000000
     54343     10015  TIP3      OH2           -36.2684350503       27.2803905193      -29.7072952842  TIP3      9815            0.0000000000
     54344     10015  TIP3      H1            -35.6563568390       27.7342086454      -29.0988666196  TIP3      9815            0.0000000000
     54345     10015  TIP3      H2            -37.0600552914       27.1888590591      -29.1519363480  TIP3      9815            0.0000000000
     54346     10016  TIP3      OH2           -30.9562834193       30.5426793160      -25.4106463858  TIP3      9816            0.0000000000
     54347     10016  TIP3      H1            -30.8533636642       31.2384406462      -24.7501846640  TIP3      9816            0.0000000000
     54348     10016  TIP3      H2            -31.4947857193       29.8626736453      -24.9502356991  TIP3      9816            0.0000000000
     54349     10017  TIP3      OH2           -23.9591323860       31.2650299625      -29.7153826823  TIP3      9817            0.0000000000
     54350     10017  TIP3      H1            -23.8260181012       30.8121351639      -28.8559106253  TIP3      9817            0.0000000000
     54351     10017  TIP3      H2            -24.8832610857       31.0042013349      -29.8794821508  TIP3      9817            0.0000000000
     54352     10018  TIP3      OH2           -19.6943060090       35.4625980202      -29.5695572385  TIP3      9818            0.0000000000
     54353     10018  TIP3      H1            -19.0409623560       36.1820863529      -29.4482458950  TIP3      9818            0.0000000000
     54354     10018  TIP3      H2            -20.5449774719       35.9486191506      -29.3979467071  TIP3      9818            0.0000000000
     54355     10019  TIP3      OH2           -23.4949704846       29.8928468012      -27.3113996356  TIP3      9819            0.0000000000
     54356     10019  TIP3      H1            -23.6131300452       28.9271088936      -27.3105206232  TIP3      9819            0.0000000000
     54357     10019  TIP3      H2            -22.5214081655       29.9502417259      -27.2961711095  TIP3      9819            0.0000000000
     54358     10020  TIP3      OH2           -30.1793534068       32.4100788540      -31.3337626364  TIP3      9820            0.0000000000
     54359     10020  TIP3      H1            -30.2926297981       31.8943152123      -32.1431450831  TIP3      9820            0.0000000000
     54360     10020  TIP3      H2            -30.6731464208       31.8601073931      -30.7189390425  TIP3      9820            0.0000000000
     54361     10021  TIP3      OH2           -34.8597883773       28.8050182043      -27.9936000698  TIP3      9821            0.0000000000
     54362     10021  TIP3      H1            -35.5914620938       29.3543478048      -27.6315300135  TIP3      9821            0.0000000000
     54363     10021  TIP3      H2            -34.4992447468       29.3862384044      -28.6758160461  TIP3      9821            0.0000000000
     54364     10022  TIP3      OH2           -26.1879080212       21.3915674513      -26.8870986940  TIP3      9822            0.0000000000
     54365     10022  TIP3      H1            -25.9842484289       21.7036851852      -27.7958834949  TIP3      9822            0.0000000000
     54366     10022  TIP3      H2            -25.6447229792       21.9949889887      -26.3227111303  TIP3      9822            0.0000000000
     54367     10023  TIP3      OH2           -28.5521954822       33.3243234898      -27.9202698121  TIP3      9823            0.0000000000
     54368     10023  TIP3      H1            -29.0164996098       33.7740032159      -27.1956134776  TIP3      9823            0.0000000000
     54369     10023  TIP3      H2            -27.9706716473       34.0424832403      -28.2330293152  TIP3      9823            0.0000000000
     54370     10024  TIP3      OH2           -28.9367710487       23.1339271928      -26.1949081695  TIP3      9824            0.0000000000
     54371     10024  TIP3      H1            -28.3522886844       23.9189861446      -26.0991175501  TIP3      9824            0.0000000000
     54372     10024  TIP3      H2            -29.1176656083       22.8712124945      -25.2627588548  TIP3      9824            0.0000000000
     54373     10025  TIP3      OH2           -28.0450588517       19.9664887611      -25.6720506461  TIP3      9825            0.0000000000
     54374     10025  TIP3      H1            -28.4270837012       20.5474373681      -25.0057254935  TIP3      9825            0.0000000000
     54375     10025  TIP3      H2            -27.3539662982       20.5725278503      -26.0458537522  TIP3      9825            0.0000000000
     54376     10026  TIP3      OH2           -32.4295720428       21.2414348571      -28.3622802323  TIP3      9826            0.0000000000
     54377     10026  TIP3      H1            -32.5271564806       22.0857060244      -27.8768370601  TIP3      9826            0.0000000000
     54378     10026  TIP3      H2            -31.5085046194       20.9941189168      -28.1621786166  TIP3      9826            0.0000000000
     54379     10027  TIP3      OH2           -23.8394537329       25.0156288976      -22.1281812556  TIP3      9827            0.0000000000
     54380     10027  TIP3      H1            -24.2403350232       25.9028061760      -22.1880628156  TIP3      9827            0.0000000000
     54381     10027  TIP3      H2            -24.4176531472       24.5921869496      -21.4568456148  TIP3      9827            0.0000000000
     54382     10028  TIP3      OH2           -36.2470669484       24.3907947301      -30.2089252920  TIP3      9828            0.0000000000
     54383     10028  TIP3      H1            -35.9402677887       25.2718632037      -29.9357256240  TIP3      9828            0.0000000000
     54384     10028  TIP3      H2            -36.6170663476       24.5679849627      -31.0829049393  TIP3      9828            0.0000000000
     54385     10029  TIP3      OH2           -35.8235704175       19.2439280905      -22.3451235490  TIP3      9829            0.0000000000
     54386     10029  TIP3      H1            -35.6786133930       19.1777187518      -23.3149136404  TIP3      9829            0.0000000000
     54387     10029  TIP3      H2            -35.5109411648       18.3724008148      -22.0810901755  TIP3      9829            0.0000000000
     54388     10030  TIP3      OH2           -36.1538561935       32.6363391043      -25.3426302828  TIP3      9830            0.0000000000
     54389     10030  TIP3      H1            -36.2513519648       33.1755957048      -24.5230659347  TIP3      9830            0.0000000000
     54390     10030  TIP3      H2            -36.4915344392       33.2914269873      -25.9809613006  TIP3      9830            0.0000000000
     54391     10031  TIP3      OH2           -28.0386074240       34.1579739910      -31.0370067226  TIP3      9831            0.0000000000
     54392     10031  TIP3      H1            -28.6310282708       33.3741849722      -31.0324728578  TIP3      9831            0.0000000000
     54393     10031  TIP3      H2            -27.2933584292       33.8506173269      -31.5982612834  TIP3      9831            0.0000000000
     54394     10032  TIP3      OH2           -23.3138609121       33.9915123561      -30.6343265264  TIP3      9832            0.0000000000
     54395     10032  TIP3      H1            -23.1973689941       33.1015348946      -30.2457441169  TIP3      9832            0.0000000000
     54396     10032  TIP3      H2            -22.6638010472       34.0076087913      -31.3630362618  TIP3      9832            0.0000000000
     54397     10033  TIP3      OH2           -32.5878368938       30.0234607182      -30.9478097274  TIP3      9833            0.0000000000
     54398     10033  TIP3      H1            -32.5830922127       29.2320032543      -30.3957645997  TIP3      9833            0.0000000000
     54399     10033  TIP3      H2            -31.7027933097       29.9317370053      -31.3429123107  TIP3      9833            0.0000000000
     54400     10034  TIP3      OH2           -27.0010033104       30.9854946458      -31.3868606065  TIP3      9834            0.0000000000
     54401     10034  TIP3      H1            -27.3656738626       30.9151559611      -30.4813998167  TIP3      9834            0.0000000000
     54402     10034  TIP3      H2            -27.0085512743       30.0304599811      -31.6312824955  TIP3      9834            0.0000000000
     54403     10035  TIP3      OH2           -31.5322360594       27.8644882830      -28.7327108846  TIP3      9835            0.0000000000
     54404     10035  TIP3      H1            -32.0414951949       27.2262054488      -28.1949322113  TIP3      9835            0.0000000000
     54405     10035  TIP3      H2            -31.0339517042       27.2679356452      -29.3227857393  TIP3      9835            0.0000000000
     54406     10036  TIP3      OH2           -30.4808576480       26.2283229907      -30.7134675010  TIP3      9836            0.0000000000
     54407     10036  TIP3      H1            -30.3455908376       26.6740438491      -31.5802454547  TIP3      9836            0.0000000000
     54408     10036  TIP3      H2            -29.5490309551       26.1979853480      -30.4013680526  TIP3      9836            0.0000000000
     54409     10037  TIP3      OH2           -20.9371898816       28.5035527130      -31.1485073568  TIP3      9837            0.0000000000
     54410     10037  TIP3      H1            -21.2986183852       28.1867723478      -32.0016669348  TIP3      9837            0.0000000000
     54411     10037  TIP3      H2            -21.0837653853       29.4782529357      -31.2338346884  TIP3      9837            0.0000000000
     54412     10038  TIP3      OH2           -30.5410117387       36.7092003775      -29.4295940323  TIP3      9838            0.0000000000
     54413     10038  TIP3      H1            -29.8224610800       36.6031199581      -28.7904454255  TIP3      9838            0.0000000000
     54414     10038  TIP3      H2            -30.2862667037       37.5053896746      -29.9055840485  TIP3      9838            0.0000000000
     54415     10039  TIP3      OH2           -36.7825080971       31.8161497347      -29.7008970602  TIP3      9839            0.0000000000
     54416     10039  TIP3      H1            -36.0792731936       31.1712986060      -29.5553880945  TIP3      9839            0.0000000000
     54417     10039  TIP3      H2            -37.1865909797       31.3643187682      -30.4574524686  TIP3      9839            0.0000000000
     54418     10040  TIP3      OH2           -37.8116768199       36.2535582517      -25.5277219077  TIP3      9840            0.0000000000
     54419     10040  TIP3      H1            -38.6771569694       36.6592582513      -25.3403750200  TIP3      9840            0.0000000000
     54420     10040  TIP3      H2            -37.3049191507       36.6067757465      -24.7643637458  TIP3      9840            0.0000000000
     54421     10041  TIP3      OH2           -36.9591036836       34.2438792293      -23.3240405488  TIP3      9841            0.0000000000
     54422     10041  TIP3      H1            -37.8904898252       34.3963848599      -23.0809020405  TIP3      9841            0.0000000000
     54423     10041  TIP3      H2            -36.4928563967       35.0548626068      -23.0914776049  TIP3      9841            0.0000000000
     54424     10042  TIP3      OH2           -20.6036871999       29.3502352457      -27.2488943103  TIP3      9842            0.0000000000
     54425     10042  TIP3      H1            -19.7012495582       29.7269204142      -27.1861701717  TIP3      9842            0.0000000000
     54426     10042  TIP3      H2            -20.5273865909       28.6117595407      -26.6130358382  TIP3      9842            0.0000000000
     54427     10043  TIP3      OH2           -20.2758473712       27.2395592826      -25.3254062848  TIP3      9843            0.0000000000
     54428     10043  TIP3      H1            -21.0277822735       26.8143369381      -24.8579065922  TIP3      9843            0.0000000000
     54429     10043  TIP3      H2            -19.7236286607       27.5218658845      -24.5734019350  TIP3      9843            0.0000000000
     54430     10044  TIP3      OH2           -19.7470430487       26.9745304093      -28.9905543345  TIP3      9844            0.0000000000
     54431     10044  TIP3      H1            -20.4317658007       26.9794869758      -29.6771890012  TIP3      9844            0.0000000000
     54432     10044  TIP3      H2            -19.9889443456       27.7939513956      -28.5271453182  TIP3      9844            0.0000000000
     54433     10045  TIP3      OH2           -22.3974632699       24.4320464389      -30.1104351583  TIP3      9845            0.0000000000
     54434     10045  TIP3      H1            -21.5383993862       24.8377386020      -30.2877524915  TIP3      9845            0.0000000000
     54435     10045  TIP3      H2            -22.3294224774       23.6175039793      -30.6544186032  TIP3      9845            0.0000000000
     54436     10046  TIP3      OH2           -22.2558533897       25.7958235479      -24.2358991210  TIP3      9846            0.0000000000
     54437     10046  TIP3      H1            -22.5325285890       25.0845237746      -24.8554930022  TIP3      9846            0.0000000000
     54438     10046  TIP3      H2            -22.7439851771       25.5324861230      -23.4345594945  TIP3      9846            0.0000000000
     54439     10047  TIP3      OH2           -22.2209837714       21.9230332325      -31.3310841840  TIP3      9847            0.0000000000
     54440     10047  TIP3      H1            -21.7858905025       21.4999772318      -30.5723446419  TIP3      9847            0.0000000000
     54441     10047  TIP3      H2            -23.1466613430       21.6601660809      -31.2210734935  TIP3      9847            0.0000000000
     54442     10048  TIP3      OH2           -22.5638382355       23.8642852022      -26.0508789266  TIP3      9848            0.0000000000
     54443     10048  TIP3      H1            -22.4930364813       22.8813497658      -26.0716791033  TIP3      9848            0.0000000000
     54444     10048  TIP3      H2            -21.9716921090       24.0491480038      -26.8012317305  TIP3      9848            0.0000000000
     54445     10049  TIP3      OH2           -22.2428302980       21.2174637225      -26.1906160790  TIP3      9849            0.0000000000
     54446     10049  TIP3      H1            -22.0165663667       20.7096117058      -25.3972350000  TIP3      9849            0.0000000000
     54447     10049  TIP3      H2            -22.7413841795       20.5218369728      -26.6714202808  TIP3      9849            0.0000000000
     54448     10050  TIP3      OH2           -36.4179991560       21.4984912360      -21.0032266467  TIP3      9850            0.0000000000
     54449     10050  TIP3      H1            -36.2029060380       20.6361633427      -21.4406526730  TIP3      9850            0.0000000000
     54450     10050  TIP3      H2            -35.5714893524       21.9896302975      -21.0257855786  TIP3      9850            0.0000000000
     54451     10051  TIP3      OH2           -37.1978889533       25.4962879774      -20.1165964400  TIP3      9851            0.0000000000
     54452     10051  TIP3      H1            -36.9464885682       24.6016216783      -20.3734347744  TIP3      9851            0.0000000000
     54453     10051  TIP3      H2            -37.6036553212       25.8725308639      -20.9144097993  TIP3      9851            0.0000000000
     54454     10052  TIP3      OH2           -20.2968243050       20.8367091896      -29.5450942965  TIP3      9852            0.0000000000
     54455     10052  TIP3      H1            -19.7565962141       20.2587753509      -30.1454624157  TIP3      9852            0.0000000000
     54456     10052  TIP3      H2            -20.0597940161       21.7139467173      -29.9390133719  TIP3      9852            0.0000000000
     54457     10053  TIP3      OH2           -37.2953050626       20.9149467580      -26.6666510002  TIP3      9853            0.0000000000
     54458     10053  TIP3      H1            -38.2123463801       20.7805671603      -26.3500141718  TIP3      9853            0.0000000000
     54459     10053  TIP3      H2            -37.4693969908       21.7061788540      -27.2181805323  TIP3      9853            0.0000000000
     54460     10054  TIP3      OH2           -23.3914028564       35.5194324338      -24.8743116764  TIP3      9854            0.0000000000
     54461     10054  TIP3      H1            -22.5220460933       35.3453402486      -25.2746120150  TIP3      9854            0.0000000000
     54462     10054  TIP3      H2            -23.1903821895       35.8955348267      -24.0018486889  TIP3      9854            0.0000000000
     54463     10055  TIP3      OH2           -22.7207858713       19.2946142986      -22.1680206330  TIP3      9855            0.0000000000
     54464     10055  TIP3      H1            -21.9511341690       19.2435890610      -22.7724430268  TIP3      9855            0.0000000000
     54465     10055  TIP3      H2            -23.2393827897       18.4982110720      -22.3575171921  TIP3      9855            0.0000000000
     54466     10056  TIP3      OH2           -20.8972410051       19.5940140736      -24.0814991840  TIP3      9856            0.0000000000
     54467     10056  TIP3      H1            -20.2851149260       18.9217080922      -24.4714325269  TIP3      9856            0.0000000000
     54468     10056  TIP3      H2            -20.2981697438       20.3688970589      -24.1196541463  TIP3      9856            0.0000000000
     54469     10057  TIP3      OH2           -35.1660588184       18.6327360858      -24.8508675802  TIP3      9857            0.0000000000
     54470     10057  TIP3      H1            -36.0019186344       18.4095379664      -25.3288015097  TIP3      9857            0.0000000000
     54471     10057  TIP3      H2            -34.7363434820       17.7508345058      -24.7888671534  TIP3      9857            0.0000000000
     54472     10058  TIP3      OH2           -36.2494737386       18.7004577242      -28.3267501603  TIP3      9858            0.0000000000
     54473     10058  TIP3      H1            -36.2675388294       19.1860541466      -29.1644498321  TIP3      9858            0.0000000000
     54474     10058  TIP3      H2            -36.6328250240       19.3501176797      -27.6947335644  TIP3      9858            0.0000000000
     54475     10059  TIP3      OH2           -30.9811645072       18.4870672678      -24.1620926498  TIP3      9859            0.0000000000
     54476     10059  TIP3      H1            -30.1153182665       18.4827711131      -24.5931874851  TIP3      9859            0.0000000000
     54477     10059  TIP3      H2            -30.7712211140       18.8977268630      -23.3045704756  TIP3      9859            0.0000000000
     54478     10060  TIP3      OH2           -23.8654777483       19.1139344623      -26.8999103465  TIP3      9860            0.0000000000
     54479     10060  TIP3      H1            -24.6323027579       19.6826005057      -26.7248585549  TIP3      9860            0.0000000000
     54480     10060  TIP3      H2            -24.2331020124       18.2325479892      -26.6848917629  TIP3      9860            0.0000000000
     54481     10061  TIP3      OH2           -36.8367347536       34.4057890669      -27.2753127389  TIP3      9861            0.0000000000
     54482     10061  TIP3      H1            -37.6007797363       34.8157968305      -27.7107186770  TIP3      9861            0.0000000000
     54483     10061  TIP3      H2            -36.6791492494       35.0885233970      -26.5839690494  TIP3      9861            0.0000000000
     54484     10062  TIP3      OH2           -35.2253970914       20.7465821912      -30.1654759356  TIP3      9862            0.0000000000
     54485     10062  TIP3      H1            -34.5027826022       20.2280385727      -30.5717532757  TIP3      9862            0.0000000000
     54486     10062  TIP3      H2            -34.9082175314       20.8181807220      -29.2512271801  TIP3      9862            0.0000000000
     54487     10063  TIP3      OH2           -29.4559873206       21.0710663416      -27.9110625512  TIP3      9863            0.0000000000
     54488     10063  TIP3      H1            -29.0205912973       20.4782927593      -27.2829906163  TIP3      9863            0.0000000000
     54489     10063  TIP3      H2            -29.3738563446       21.9093977360      -27.3978584306  TIP3      9863            0.0000000000
     54490     10064  TIP3      OH2           -27.7440649441       35.8614043157      -28.8857929609  TIP3      9864            0.0000000000
     54491     10064  TIP3      H1            -26.8202229684       35.8336280820      -29.2217617415  TIP3      9864            0.0000000000
     54492     10064  TIP3      H2            -28.2039045726       35.4840720070      -29.6615028200  TIP3      9864            0.0000000000
     54493     10065  TIP3      OH2           -21.1187078695       35.3363473604      -26.5308395280  TIP3      9865            0.0000000000
     54494     10065  TIP3      H1            -21.4513011782       34.4739031322      -26.8864902145  TIP3      9865            0.0000000000
     54495     10065  TIP3      H2            -21.2374238138       35.8894153076      -27.3265443479  TIP3      9865            0.0000000000
     54496     10066  TIP3      OH2           -35.2828623884       35.5286078870      -30.6435360407  TIP3      9866            0.0000000000
     54497     10066  TIP3      H1            -35.8044098032       35.9020735786      -29.9008350847  TIP3      9866            0.0000000000
     54498     10066  TIP3      H2            -34.5612735696       35.0939623783      -30.1786750535  TIP3      9866            0.0000000000
     54499     10067  TIP3      OH2            -7.3205051864       28.2163865158      -24.5028380806  TIP3      9867            0.0000000000
     54500     10067  TIP3      H1             -7.6286182585       29.1473382279      -24.5136410003  TIP3      9867            0.0000000000
     54501     10067  TIP3      H2             -7.8570348268       27.8746500288      -25.2424328701  TIP3      9867            0.0000000000
     54502     10068  TIP3      OH2            -5.2002789047       30.5600935549      -22.4475744284  TIP3      9868            0.0000000000
     54503     10068  TIP3      H1             -5.4912162725       29.7500932632      -21.9842505605  TIP3      9868            0.0000000000
     54504     10068  TIP3      H2             -4.9367969182       31.1226014681      -21.7138375949  TIP3      9868            0.0000000000
     54505     10069  TIP3      OH2           -18.6259821060       24.7843414821      -25.2506714120  TIP3      9869            0.0000000000
     54506     10069  TIP3      H1            -18.7416305415       25.7334689245      -25.0866003954  TIP3      9869            0.0000000000
     54507     10069  TIP3      H2            -19.2610358194       24.6474633058      -25.9792286073  TIP3      9869            0.0000000000
     54508     10070  TIP3      OH2           -18.4611573131       27.4951931796      -23.1619920317  TIP3      9870            0.0000000000
     54509     10070  TIP3      H1            -17.9491870040       26.8836740785      -22.6141727782  TIP3      9870            0.0000000000
     54510     10070  TIP3      H2            -17.9715240686       28.3094238067      -22.9752119870  TIP3      9870            0.0000000000
     54511     10071  TIP3      OH2            -7.8397716550       35.0299611679      -22.1328552591  TIP3      9871            0.0000000000
     54512     10071  TIP3      H1             -7.0301935717       34.7372761123      -22.5845339508  TIP3      9871            0.0000000000
     54513     10071  TIP3      H2             -7.4774134435       35.1207844037      -21.2121757279  TIP3      9871            0.0000000000
     54514     10072  TIP3      OH2            -6.7875427137       24.3785819488      -19.9231263174  TIP3      9872            0.0000000000
     54515     10072  TIP3      H1             -7.4859455581       23.7552801820      -19.6846339899  TIP3      9872            0.0000000000
     54516     10072  TIP3      H2             -6.8605435472       24.4287855886      -20.8893744992  TIP3      9872            0.0000000000
     54517     10073  TIP3      OH2           -13.5340763447       22.2599555453      -23.1572308769  TIP3      9873            0.0000000000
     54518     10073  TIP3      H1            -13.4593721470       23.0982205213      -23.6675702377  TIP3      9873            0.0000000000
     54519     10073  TIP3      H2            -14.2865199300       21.8410953975      -23.6201172948  TIP3      9873            0.0000000000
     54520     10074  TIP3      OH2            -6.2063253930       22.3258331337      -24.6490723980  TIP3      9874            0.0000000000
     54521     10074  TIP3      H1             -5.8182589736       22.0171441787      -23.7975629481  TIP3      9874            0.0000000000
     54522     10074  TIP3      H2             -5.7858946374       23.1861244428      -24.7436510920  TIP3      9874            0.0000000000
     54523     10075  TIP3      OH2           -17.7328065727       24.8591095868      -21.9216267892  TIP3      9875            0.0000000000
     54524     10075  TIP3      H1            -17.0083020652       24.4616768610      -21.3648647060  TIP3      9875            0.0000000000
     54525     10075  TIP3      H2            -17.3615460589       24.6396889445      -22.7901390445  TIP3      9875            0.0000000000
     54526     10076  TIP3      OH2           -12.6253775044       26.1774990530      -22.7945429398  TIP3      9876            0.0000000000
     54527     10076  TIP3      H1            -11.8045824574       25.7913852219      -22.4451051514  TIP3      9876            0.0000000000
     54528     10076  TIP3      H2            -13.0612596393       25.4175896326      -23.2219968598  TIP3      9876            0.0000000000
     54529     10077  TIP3      OH2            -8.2390367399       30.6583584690      -25.6398302791  TIP3      9877            0.0000000000
     54530     10077  TIP3      H1             -8.3535633703       30.6950460647      -26.6089902958  TIP3      9877            0.0000000000
     54531     10077  TIP3      H2             -8.4133223795       31.6027394345      -25.4316740802  TIP3      9877            0.0000000000
     54532     10078  TIP3      OH2            -4.5042832434       21.6996262787      -22.5135894577  TIP3      9878            0.0000000000
     54533     10078  TIP3      H1             -3.6618910145       21.2801305240      -22.7366876630  TIP3      9878            0.0000000000
     54534     10078  TIP3      H2             -4.2165071864       22.4280595476      -21.9363897888  TIP3      9878            0.0000000000
     54535     10079  TIP3      OH2           -15.6669712043       23.3424309542      -21.2284588197  TIP3      9879            0.0000000000
     54536     10079  TIP3      H1            -15.4533995764       22.8143055656      -20.4338715647  TIP3      9879            0.0000000000
     54537     10079  TIP3      H2            -14.8907373248       23.1952288068      -21.7973110087  TIP3      9879            0.0000000000
     54538     10080  TIP3      OH2           -17.9970560774       30.2555505485      -27.1925057570  TIP3      9880            0.0000000000
     54539     10080  TIP3      H1            -18.0059034332       30.8628277387      -27.9641665097  TIP3      9880            0.0000000000
     54540     10080  TIP3      H2            -17.7201162799       30.8630583667      -26.4750126369  TIP3      9880            0.0000000000
     54541     10081  TIP3      OH2            -6.1142220770       34.0393405770      -24.2271165267  TIP3      9881            0.0000000000
     54542     10081  TIP3      H1             -5.7316151502       33.1598034747      -24.4077686177  TIP3      9881            0.0000000000
     54543     10081  TIP3      H2             -5.3679291507       34.6552693382      -24.4309669042  TIP3      9881            0.0000000000
     54544     10082  TIP3      OH2            -4.6480620151       31.5086712674      -25.1884637283  TIP3      9882            0.0000000000
     54545     10082  TIP3      H1             -4.9732497507       30.8955739234      -25.8760385090  TIP3      9882            0.0000000000
     54546     10082  TIP3      H2             -4.7947134411       31.0207879200      -24.3547470271  TIP3      9882            0.0000000000
     54547     10083  TIP3      OH2            -8.7359833231       27.4802107448      -26.7741980613  TIP3      9883            0.0000000000
     54548     10083  TIP3      H1             -9.3487023923       28.2071792937      -27.0001869042  TIP3      9883            0.0000000000
     54549     10083  TIP3      H2             -7.9600217441       27.6722093994      -27.3501065927  TIP3      9883            0.0000000000
     54550     10084  TIP3      OH2            -8.6077523367       26.2418116179      -30.0153488903  TIP3      9884            0.0000000000
     54551     10084  TIP3      H1             -8.1067648682       26.6743435376      -29.2963679558  TIP3      9884            0.0000000000
     54552     10084  TIP3      H2             -8.4684278437       25.3260161639      -29.7283848489  TIP3      9884            0.0000000000
     54553     10085  TIP3      OH2            -5.0245501954       27.4589289113      -25.7660479026  TIP3      9885            0.0000000000
     54554     10085  TIP3      H1             -5.7739369769       27.6849401304      -25.1664113406  TIP3      9885            0.0000000000
     54555     10085  TIP3      H2             -4.4290855979       26.9782757583      -25.1703736309  TIP3      9885            0.0000000000
     54556     10086  TIP3      OH2           -13.6391557780       28.1916321124      -24.1531982485  TIP3      9886            0.0000000000
     54557     10086  TIP3      H1            -14.0208204712       27.6259211355      -24.8491061163  TIP3      9886            0.0000000000
     54558     10086  TIP3      H2            -13.3291165591       27.5166232193      -23.5049570693  TIP3      9886            0.0000000000
     54559     10087  TIP3      OH2            -6.5399502173       27.1690536593      -28.1633914504  TIP3      9887            0.0000000000
     54560     10087  TIP3      H1             -5.9150575427       27.2680524412      -27.4160394663  TIP3      9887            0.0000000000
     54561     10087  TIP3      H2             -5.9922970367       27.5013258492      -28.9213817689  TIP3      9887            0.0000000000
     54562     10088  TIP3      OH2            -8.8085009491       33.3597607473      -25.1441346751  TIP3      9888            0.0000000000
     54563     10088  TIP3      H1             -8.2367402769       33.8204329192      -24.5012187801  TIP3      9888            0.0000000000
     54564     10088  TIP3      H2             -9.1598882249       34.0746073718      -25.6997297059  TIP3      9888            0.0000000000
     54565     10089  TIP3      OH2            -2.5832241213       18.4682116726      -28.0963206562  TIP3      9889            0.0000000000
     54566     10089  TIP3      H1             -3.5050056444       18.5769679570      -27.7793835399  TIP3      9889            0.0000000000
     54567     10089  TIP3      H2             -2.3115572779       19.3871752118      -28.2889234329  TIP3      9889            0.0000000000
     54568     10090  TIP3      OH2           -14.8967086923       27.0894595144      -26.4100865443  TIP3      9890            0.0000000000
     54569     10090  TIP3      H1            -15.1120101040       27.9441415112      -26.8378878892  TIP3      9890            0.0000000000
     54570     10090  TIP3      H2            -15.3592747300       26.4503414357      -26.9546666809  TIP3      9890            0.0000000000
     54571     10091  TIP3      OH2            -1.6119597170       32.8752307139      -30.0521215531  TIP3      9891            0.0000000000
     54572     10091  TIP3      H1             -1.3904443507       33.8134624110      -29.9171661407  TIP3      9891            0.0000000000
     54573     10091  TIP3      H2             -0.7681886835       32.4375067481      -29.8116751697  TIP3      9891            0.0000000000
     54574     10092  TIP3      OH2           -18.5464433884       32.6735608230      -21.2787610402  TIP3      9892            0.0000000000
     54575     10092  TIP3      H1            -17.6630646925       32.7446265706      -20.8772161851  TIP3      9892            0.0000000000
     54576     10092  TIP3      H2            -19.1392197523       33.0562272246      -20.6138181553  TIP3      9892            0.0000000000
     54577     10093  TIP3      OH2            -9.0314963205       36.4972057527      -26.4878888096  TIP3      9893            0.0000000000
     54578     10093  TIP3      H1             -8.9976704116       36.7602568264      -27.4267013249  TIP3      9893            0.0000000000
     54579     10093  TIP3      H2             -9.5309024583       37.2484217957      -26.0994159953  TIP3      9893            0.0000000000
     54580     10094  TIP3      OH2           -15.2774194795       34.8804518994      -24.5099669169  TIP3      9894            0.0000000000
     54581     10094  TIP3      H1            -14.8969036614       35.5482668149      -23.9042047455  TIP3      9894            0.0000000000
     54582     10094  TIP3      H2            -15.6544425831       34.2506667209      -23.8775328240  TIP3      9894            0.0000000000
     54583     10095  TIP3      OH2            -6.4332333923       35.4033494942      -29.1669422726  TIP3      9895            0.0000000000
     54584     10095  TIP3      H1             -5.6460773795       34.8833127203      -29.4424900474  TIP3      9895            0.0000000000
     54585     10095  TIP3      H2             -6.4676652393       35.1816105823      -28.2031220043  TIP3      9895            0.0000000000
     54586     10096  TIP3      OH2            -6.6653530865       35.1633151746      -26.5573138426  TIP3      9896            0.0000000000
     54587     10096  TIP3      H1             -7.4867003461       35.6318562681      -26.3261931780  TIP3      9896            0.0000000000
     54588     10096  TIP3      H2             -6.5041507980       34.6347050162      -25.7494576005  TIP3      9896            0.0000000000
     54589     10097  TIP3      OH2            -5.0261731759       28.1699857894      -30.0549038580  TIP3      9897            0.0000000000
     54590     10097  TIP3      H1             -5.1227461772       28.3046544953      -31.0193384456  TIP3      9897            0.0000000000
     54591     10097  TIP3      H2             -4.0810481220       28.3994655899      -29.9472550080  TIP3      9897            0.0000000000
     54592     10098  TIP3      OH2            -9.2955347514       21.7862718730      -29.9147354235  TIP3      9898            0.0000000000
     54593     10098  TIP3      H1             -9.5379223318       21.5452554057      -28.9962916765  TIP3      9898            0.0000000000
     54594     10098  TIP3      H2             -9.8062647103       21.0789955920      -30.3636932644  TIP3      9898            0.0000000000
     54595     10099  TIP3      OH2           -13.7631799433       24.4415520175      -24.5989412880  TIP3      9899            0.0000000000
     54596     10099  TIP3      H1            -14.6690143801       24.1711450158      -24.8434822318  TIP3      9899            0.0000000000
     54597     10099  TIP3      H2            -13.3333959782       24.4836108584      -25.4874273807  TIP3      9899            0.0000000000
     54598     10100  TIP3      OH2            -8.0288390368       25.2018560725      -25.7600182591  TIP3      9900            0.0000000000
     54599     10100  TIP3      H1             -8.3407123947       26.0339224252      -26.1940911402  TIP3      9900            0.0000000000
     54600     10100  TIP3      H2             -7.4329804127       24.8894854693      -26.4633122271  TIP3      9900            0.0000000000
     54601     10101  TIP3      OH2            -7.0102690040       24.9006019145      -22.7723671209  TIP3      9901            0.0000000000
     54602     10101  TIP3      H1             -7.2926860521       25.6951672019      -23.2673753808  TIP3      9901            0.0000000000
     54603     10101  TIP3      H2             -7.3364129563       24.2043703887      -23.3553583226  TIP3      9901            0.0000000000
     54604     10102  TIP3      OH2           -13.2984427782       21.8006268675      -31.0347505689  TIP3      9902            0.0000000000
     54605     10102  TIP3      H1            -13.5848546015       21.4118870630      -30.1776325632  TIP3      9902            0.0000000000
     54606     10102  TIP3      H2            -14.0383067009       22.3909357351      -31.2679802614  TIP3      9902            0.0000000000
     54607     10103  TIP3      OH2           -19.0240052206       21.7360447563      -23.5609225074  TIP3      9903            0.0000000000
     54608     10103  TIP3      H1            -18.5073235934       22.5450100627      -23.4454820502  TIP3      9903            0.0000000000
     54609     10103  TIP3      H2            -18.8063418224       21.5156701126      -24.4917470585  TIP3      9903            0.0000000000
     54610     10104  TIP3      OH2           -18.1129136047       22.3076624876      -28.0833285796  TIP3      9904            0.0000000000
     54611     10104  TIP3      H1            -17.6787633217       22.6256418839      -28.8944702062  TIP3      9904            0.0000000000
     54612     10104  TIP3      H2            -18.8498099471       22.9451120140      -28.0162928087  TIP3      9904            0.0000000000
     54613     10105  TIP3      OH2           -10.7729842309       22.1588352964      -23.5395669677  TIP3      9905            0.0000000000
     54614     10105  TIP3      H1            -11.7433124895       22.0457458304      -23.4808389068  TIP3      9905            0.0000000000
     54615     10105  TIP3      H2            -10.5615738245       22.1609760997      -22.5884135007  TIP3      9905            0.0000000000
     54616     10106  TIP3      OH2           -16.4862813720       23.3063263604      -24.6833610834  TIP3      9906            0.0000000000
     54617     10106  TIP3      H1            -17.1151987696       23.8369792148      -25.2146849489  TIP3      9906            0.0000000000
     54618     10106  TIP3      H2            -16.5454442815       22.4040174273      -25.0422274112  TIP3      9906            0.0000000000
     54619     10107  TIP3      OH2           -12.7677535381       23.9756542058      -27.0058163334  TIP3      9907            0.0000000000
     54620     10107  TIP3      H1            -11.8119267292       23.8981402922      -27.1398900730  TIP3      9907            0.0000000000
     54621     10107  TIP3      H2            -13.0457422369       24.5552337998      -27.7445696082  TIP3      9907            0.0000000000
     54622     10108  TIP3      OH2           -13.6128701206       25.1076239953      -29.3227685319  TIP3      9908            0.0000000000
     54623     10108  TIP3      H1            -14.1093970647       24.5266577013      -29.9211719808  TIP3      9908            0.0000000000
     54624     10108  TIP3      H2            -12.9218724375       25.4355502893      -29.9471409982  TIP3      9908            0.0000000000
     54625     10109  TIP3      OH2           -15.1204477784       20.8543614610      -25.1028574033  TIP3      9909            0.0000000000
     54626     10109  TIP3      H1            -14.6757942168       19.9917039451      -25.1169009462  TIP3      9909            0.0000000000
     54627     10109  TIP3      H2            -14.8054769430       21.2299313665      -25.9325134880  TIP3      9909            0.0000000000
     54628     10110  TIP3      OH2           -10.4450930667       29.4967387090      -27.3540807130  TIP3      9910            0.0000000000
     54629     10110  TIP3      H1            -11.2214345317       29.0595808604      -27.7556384699  TIP3      9910            0.0000000000
     54630     10110  TIP3      H2            -10.8797584266       29.8262124748      -26.5235184620  TIP3      9910            0.0000000000
     54631     10111  TIP3      OH2            -6.7244757207       22.3675096665      -29.3174699993  TIP3      9911            0.0000000000
     54632     10111  TIP3      H1             -7.6987632003       22.4077988607      -29.4181038624  TIP3      9911            0.0000000000
     54633     10111  TIP3      H2             -6.5235235413       23.2173756347      -28.8777250978  TIP3      9911            0.0000000000
     54634     10112  TIP3      OH2            -6.3386267576       24.5445618109      -27.8759763142  TIP3      9912            0.0000000000
     54635     10112  TIP3      H1             -5.6203446709       24.1744814245      -27.3196995179  TIP3      9912            0.0000000000
     54636     10112  TIP3      H2             -5.8895582256       25.3239041653      -28.2461823941  TIP3      9912            0.0000000000
     54637     10113  TIP3      OH2            -8.6388236741       30.9201502645      -28.6453862280  TIP3      9913            0.0000000000
     54638     10113  TIP3      H1             -9.1034310096       31.7431237061      -28.3569271915  TIP3      9913            0.0000000000
     54639     10113  TIP3      H2             -9.2540681704       30.2438008202      -28.2956665683  TIP3      9913            0.0000000000
     54640     10114  TIP3      OH2            -1.3673156897       24.3390542804      -27.8743779739  TIP3      9914            0.0000000000
     54641     10114  TIP3      H1             -1.8955562460       24.2542893605      -28.6936348368  TIP3      9914            0.0000000000
     54642     10114  TIP3      H2             -1.1085390318       25.2842564698      -27.9055327661  TIP3      9914            0.0000000000
     54643     10115  TIP3      OH2            -3.0847072763       32.9752529902      -27.6250169460  TIP3      9915            0.0000000000
     54644     10115  TIP3      H1             -3.4407867566       32.2853268558      -27.0409857375  TIP3      9915            0.0000000000
     54645     10115  TIP3      H2             -2.7406558876       32.4922854680      -28.3866339276  TIP3      9915            0.0000000000
     54646     10116  TIP3      OH2            -5.4002137452       28.2598235060      -20.7761635303  TIP3      9916            0.0000000000
     54647     10116  TIP3      H1             -5.7596616690       27.8797857064      -19.9626421977  TIP3      9916            0.0000000000
     54648     10116  TIP3      H2             -4.6167787944       27.7070060799      -20.9164626772  TIP3      9916            0.0000000000
     54649     10117  TIP3      OH2           -13.1069467941       32.6214173796      -24.2666638609  TIP3      9917            0.0000000000
     54650     10117  TIP3      H1            -12.8189893548       33.4551286916      -24.6936881516  TIP3      9917            0.0000000000
     54651     10117  TIP3      H2            -14.0281137404       32.5721926402      -24.5626454641  TIP3      9917            0.0000000000
     54652     10118  TIP3      OH2           -16.8826680775       27.3117151845      -29.7767085388  TIP3      9918            0.0000000000
     54653     10118  TIP3      H1            -16.4547941771       27.8764716434      -29.0989819702  TIP3      9918            0.0000000000
     54654     10118  TIP3      H2            -17.8321330554       27.3366094768      -29.5679760824  TIP3      9918            0.0000000000
     54655     10119  TIP3      OH2           -11.9683349780       30.1229834567      -25.3146813770  TIP3      9919            0.0000000000
     54656     10119  TIP3      H1            -12.3171731198       30.8809816774      -24.8195173094  TIP3      9919            0.0000000000
     54657     10119  TIP3      H2            -12.3570723459       29.3733430101      -24.8216371040  TIP3      9919            0.0000000000
     54658     10120  TIP3      OH2           -12.6655449526       35.1299001999      -25.5332432823  TIP3      9920            0.0000000000
     54659     10120  TIP3      H1            -13.6375248065       35.0831663735      -25.6006083180  TIP3      9920            0.0000000000
     54660     10120  TIP3      H2            -12.5696477874       35.9755220769      -25.0415550180  TIP3      9920            0.0000000000
     54661     10121  TIP3      OH2            -5.2096566388       31.3861898855      -29.6102691350  TIP3      9921            0.0000000000
     54662     10121  TIP3      H1             -5.1844939901       31.0000643013      -28.7081952481  TIP3      9921            0.0000000000
     54663     10121  TIP3      H2             -6.0819450437       31.0808875512      -29.8919020726  TIP3      9921            0.0000000000
     54664     10122  TIP3      OH2            -0.9414324915       35.5405106240      -29.4443287944  TIP3      9922            0.0000000000
     54665     10122  TIP3      H1             -0.4471347381       36.3850555327      -29.3613294520  TIP3      9922            0.0000000000
     54666     10122  TIP3      H2             -1.8750746027       35.8724398414      -29.3898995519  TIP3      9922            0.0000000000
     54667     10123  TIP3      OH2            -4.5522466994       29.8117900557      -27.3955727748  TIP3      9923            0.0000000000
     54668     10123  TIP3      H1             -4.7385982235       28.9777948329      -26.9286637281  TIP3      9923            0.0000000000
     54669     10123  TIP3      H2             -3.5775414543       29.8098057872      -27.4091393358  TIP3      9923            0.0000000000
     54670     10124  TIP3      OH2           -11.1820805206       32.3523367038      -31.2643077303  TIP3      9924            0.0000000000
     54671     10124  TIP3      H1            -11.4511734339       31.6735855751      -31.8998310784  TIP3      9924            0.0000000000
     54672     10124  TIP3      H2            -11.8432465531       32.2332193020      -30.5497555019  TIP3      9924            0.0000000000
     54673     10125  TIP3      OH2           -12.4251582245       31.8729047292      -28.7438742074  TIP3      9925            0.0000000000
     54674     10125  TIP3      H1            -11.8259761410       31.4429151467      -28.1157367607  TIP3      9925            0.0000000000
     54675     10125  TIP3      H2            -12.3473128496       32.8099928683      -28.4443066259  TIP3      9925            0.0000000000
     54676     10126  TIP3      OH2           -15.6652744471       29.0953008786      -28.1346779580  TIP3      9926            0.0000000000
     54677     10126  TIP3      H1            -16.5070232175       29.4947640524      -27.8200720958  TIP3      9926            0.0000000000
     54678     10126  TIP3      H2            -15.2365893629       29.8636961038      -28.5499842127  TIP3      9926            0.0000000000
     54679     10127  TIP3      OH2            -7.4158468364       21.2919197527      -26.9442349035  TIP3      9927            0.0000000000
     54680     10127  TIP3      H1             -6.9084738264       21.6119903356      -27.7138655750  TIP3      9927            0.0000000000
     54681     10127  TIP3      H2             -6.8712169043       21.5493288785      -26.1712328981  TIP3      9927            0.0000000000
     54682     10128  TIP3      OH2            -9.7393286583       33.2830988184      -27.8144154844  TIP3      9928            0.0000000000
     54683     10128  TIP3      H1            -10.6187663935       33.6323655499      -27.5763806783  TIP3      9928            0.0000000000
     54684     10128  TIP3      H2             -9.2370183006       34.0983049254      -27.9389049070  TIP3      9928            0.0000000000
     54685     10129  TIP3      OH2           -10.2187601455       23.2116466794      -26.0907944584  TIP3      9929            0.0000000000
     54686     10129  TIP3      H1             -9.5196469816       23.8718799403      -25.9205253192  TIP3      9929            0.0000000000
     54687     10129  TIP3      H2            -10.3674243455       22.8140287885      -25.2070203262  TIP3      9929            0.0000000000
     54688     10130  TIP3      OH2            -9.3828395237       20.0341007238      -25.5672911994  TIP3      9930            0.0000000000
     54689     10130  TIP3      H1             -9.4973886492       20.5750793256      -24.7708156332  TIP3      9930            0.0000000000
     54690     10130  TIP3      H2             -8.6790832690       20.5541005390      -26.0249272896  TIP3      9930            0.0000000000
     54691     10131  TIP3      OH2           -12.2120220148       34.4750531186      -28.0729441661  TIP3      9931            0.0000000000
     54692     10131  TIP3      H1            -12.0617602600       35.3339957066      -28.5423039665  TIP3      9931            0.0000000000
     54693     10131  TIP3      H2            -12.4556368113       34.8448224140      -27.1947067413  TIP3      9931            0.0000000000
     54694     10132  TIP3      OH2           -13.6490988609       21.1987782162      -28.3602049935  TIP3      9932            0.0000000000
     54695     10132  TIP3      H1            -13.7081320665       22.0886564684      -27.9875895468  TIP3      9932            0.0000000000
     54696     10132  TIP3      H2            -12.6992998571       21.0208302594      -28.1822472563  TIP3      9932            0.0000000000
     54697     10133  TIP3      OH2            -4.5428839493       25.8872508962      -22.3624923233  TIP3      9933            0.0000000000
     54698     10133  TIP3      H1             -5.4767534734       25.6027931352      -22.2677019735  TIP3      9933            0.0000000000
     54699     10133  TIP3      H2             -4.0895296644       25.3332430798      -21.6938849057  TIP3      9933            0.0000000000
     54700     10134  TIP3      OH2           -15.4576703217       31.5431028587      -29.4830593246  TIP3      9934            0.0000000000
     54701     10134  TIP3      H1            -14.7599233077       32.1157249372      -29.1323996718  TIP3      9934            0.0000000000
     54702     10134  TIP3      H2            -14.9298252861       31.0057210640      -30.1280502501  TIP3      9934            0.0000000000
     54703     10135  TIP3      OH2           -16.5906043685       24.2870847149      -29.8965362889  TIP3      9935            0.0000000000
     54704     10135  TIP3      H1            -16.6172804549       25.2500936457      -29.7338572548  TIP3      9935            0.0000000000
     54705     10135  TIP3      H2            -17.5137532022       24.0996418761      -30.1686938083  TIP3      9935            0.0000000000
     54706     10136  TIP3      OH2           -17.4207115997       32.6633109006      -25.5692158999  TIP3      9936            0.0000000000
     54707     10136  TIP3      H1            -18.1378062188       32.9731022914      -25.0057521239  TIP3      9936            0.0000000000
     54708     10136  TIP3      H2            -17.3557982539       33.3901900814      -26.2239255397  TIP3      9936            0.0000000000
     54709     10137  TIP3      OH2            -9.2400980251       34.3300612625      -31.0493880043  TIP3      9937            0.0000000000
     54710     10137  TIP3      H1             -9.7093407117       33.4668760081      -30.9842753395  TIP3      9937            0.0000000000
     54711     10137  TIP3      H2             -8.4346251431       34.0878479683      -31.5576495035  TIP3      9937            0.0000000000
     54712     10138  TIP3      OH2            -4.5116455315       34.0010540756      -30.6113995126  TIP3      9938            0.0000000000
     54713     10138  TIP3      H1             -4.3984849544       33.1085510185      -30.2373195167  TIP3      9938            0.0000000000
     54714     10138  TIP3      H2             -3.8167105257       34.0187982688      -31.2954718081  TIP3      9938            0.0000000000
     54715     10139  TIP3      OH2           -13.9103868425       29.8891427136      -31.1730322595  TIP3      9939            0.0000000000
     54716     10139  TIP3      H1            -13.6952438255       29.3458813406      -30.4029223228  TIP3      9939            0.0000000000
     54717     10139  TIP3      H2            -13.0710824750       29.7962916989      -31.6715715643  TIP3      9939            0.0000000000
     54718     10140  TIP3      OH2            -8.1328114230       30.9714877874      -31.6112097770  TIP3      9940            0.0000000000
     54719     10140  TIP3      H1             -8.5943295708       30.9660553847      -30.7684608514  TIP3      9940            0.0000000000
     54720     10140  TIP3      H2             -8.1379020676       30.0070212818      -31.8242705918  TIP3      9940            0.0000000000
     54721     10141  TIP3      OH2           -12.5613695230       28.0943726113      -28.4850378173  TIP3      9941            0.0000000000
     54722     10141  TIP3      H1            -13.1478376357       27.5453145202      -27.9344511672  TIP3      9941            0.0000000000
     54723     10141  TIP3      H2            -12.2497280026       27.4455088276      -29.1422545625  TIP3      9941            0.0000000000
     54724     10142  TIP3      OH2           -11.4463318088       26.3628701480      -30.5552856524  TIP3      9942            0.0000000000
     54725     10142  TIP3      H1            -11.5612785957       26.6287527294      -31.4908657352  TIP3      9942            0.0000000000
     54726     10142  TIP3      H2            -10.4706562852       26.3926982758      -30.4692015448  TIP3      9942            0.0000000000
     54727     10143  TIP3      OH2            -2.2521569399       28.3926314102      -31.0289720960  TIP3      9943            0.0000000000
     54728     10143  TIP3      H1             -2.4335751232       28.0995709508      -31.9519492892  TIP3      9943            0.0000000000
     54729     10143  TIP3      H2             -2.2888011269       29.3794473677      -31.1360524021  TIP3      9943            0.0000000000
     54730     10144  TIP3      OH2           -11.7120898471       36.8642841341      -29.1061243624  TIP3      9944            0.0000000000
     54731     10144  TIP3      H1            -10.7366962104       36.9434586841      -29.1088825008  TIP3      9944            0.0000000000
     54732     10144  TIP3      H2            -11.9694612556       37.4400656041      -29.8348560554  TIP3      9944            0.0000000000
     54733     10145  TIP3      OH2           -18.2224593115       31.2255123437      -29.7483186561  TIP3      9945            0.0000000000
     54734     10145  TIP3      H1            -17.2412403658       31.2601181184      -29.8223837718  TIP3      9945            0.0000000000
     54735     10145  TIP3      H2            -18.4762286694       30.7769102331      -30.5845304975  TIP3      9945            0.0000000000
     54736     10146  TIP3      OH2           -19.4419072526       36.7852903200      -25.0915601921  TIP3      9946            0.0000000000
     54737     10146  TIP3      H1            -20.0616005980       36.1881668172      -25.5686989788  TIP3      9946            0.0000000000
     54738     10146  TIP3      H2            -19.5057097242       36.4625907920      -24.1947191482  TIP3      9946            0.0000000000
     54739     10147  TIP3      OH2            -1.7870509120       29.2794052006      -27.1979450355  TIP3      9947            0.0000000000
     54740     10147  TIP3      H1             -0.8906977328       29.6558236932      -27.0906806307  TIP3      9947            0.0000000000
     54741     10147  TIP3      H2             -1.8178122067       28.6273960018      -26.4588261617  TIP3      9947            0.0000000000
     54742     10148  TIP3      OH2            -1.4157679091       27.4357601709      -25.1842882869  TIP3      9948            0.0000000000
     54743     10148  TIP3      H1             -2.1217202070       26.8817536521      -24.7889981932  TIP3      9948            0.0000000000
     54744     10148  TIP3      H2             -0.8733042618       27.6129311860      -24.3845119087  TIP3      9948            0.0000000000
     54745     10149  TIP3      OH2            -1.5330265565       30.0311362128      -20.0742380138  TIP3      9949            0.0000000000
     54746     10149  TIP3      H1             -0.8389135118       29.3565699902      -20.0628931259  TIP3      9949            0.0000000000
     54747     10149  TIP3      H2             -1.1652053233       30.7058919969      -19.4833854965  TIP3      9949            0.0000000000
     54748     10150  TIP3      OH2            -1.0054752963       27.1896870892      -28.8559237176  TIP3      9950            0.0000000000
     54749     10150  TIP3      H1             -1.6125995473       27.3335232270      -29.6145821383  TIP3      9950            0.0000000000
     54750     10150  TIP3      H2             -1.2862291331       27.9290022085      -28.2703400305  TIP3      9950            0.0000000000
     54751     10151  TIP3      OH2            -2.8891403207       24.3408949169      -30.4372891276  TIP3      9951            0.0000000000
     54752     10151  TIP3      H1             -2.6539737813       24.9284400274      -31.1604296567  TIP3      9951            0.0000000000
     54753     10151  TIP3      H2             -3.0140861016       23.5045161350      -30.9054352370  TIP3      9951            0.0000000000
     54754     10152  TIP3      OH2            -3.1617850840       25.4878757350      -24.5728132835  TIP3      9952            0.0000000000
     54755     10152  TIP3      H1             -3.6582476336       24.7609866722      -24.9904121696  TIP3      9952            0.0000000000
     54756     10152  TIP3      H2             -3.6507985309       25.6088044300      -23.7260261234  TIP3      9952            0.0000000000
     54757     10153  TIP3      OH2            -3.2726556093       21.7694771282      -31.4027055528  TIP3      9953            0.0000000000
     54758     10153  TIP3      H1             -2.9064540358       21.4051705874      -30.5698933459  TIP3      9953            0.0000000000
     54759     10153  TIP3      H2             -4.1995693873       21.5086994360      -31.3872122563  TIP3      9953            0.0000000000
     54760     10154  TIP3      OH2            -4.1100364207       23.6723318945      -26.4555977323  TIP3      9954            0.0000000000
     54761     10154  TIP3      H1             -3.8405861404       22.7535121985      -26.2487117557  TIP3      9954            0.0000000000
     54762     10154  TIP3      H2             -3.2225783547       24.0286156446      -26.6220840836  TIP3      9954            0.0000000000
     54763     10155  TIP3      OH2            -3.4300401132       23.9326799052      -20.7479260437  TIP3      9955            0.0000000000
     54764     10155  TIP3      H1             -2.4823916546       24.2012336971      -20.8279178752  TIP3      9955            0.0000000000
     54765     10155  TIP3      H2             -3.4684057195       23.9440501379      -19.7839144744  TIP3      9955            0.0000000000
     54766     10156  TIP3      OH2            -3.1484172448       21.0603463452      -26.0943910655  TIP3      9956            0.0000000000
     54767     10156  TIP3      H1             -2.8746143001       20.6539655039      -25.2493663311  TIP3      9956            0.0000000000
     54768     10156  TIP3      H2             -3.7631429503       20.3654452101      -26.3977001344  TIP3      9956            0.0000000000
     54769     10157  TIP3      OH2            -1.3845187032       20.7942625125      -29.4072194702  TIP3      9957            0.0000000000
     54770     10157  TIP3      H1             -1.0251074258       20.2572176796      -30.1530656706  TIP3      9957            0.0000000000
     54771     10157  TIP3      H2             -0.6425757204       21.4196925612      -29.2294172281  TIP3      9957            0.0000000000
     54772     10158  TIP3      OH2           -19.2290856057       20.9682978438      -26.1725995521  TIP3      9958            0.0000000000
     54773     10158  TIP3      H1            -20.1237575592       20.9652723071      -26.5378169388  TIP3      9958            0.0000000000
     54774     10158  TIP3      H2            -18.7496457786       21.3212350522      -26.9580047793  TIP3      9958            0.0000000000
     54775     10159  TIP3      OH2            -4.3158454109       35.8239523474      -24.8893267463  TIP3      9959            0.0000000000
     54776     10159  TIP3      H1             -3.4991651168       35.7171029327      -25.4124530495  TIP3      9959            0.0000000000
     54777     10159  TIP3      H2             -4.0486318659       36.1623056143      -24.0080653234  TIP3      9959            0.0000000000
     54778     10160  TIP3      OH2            -2.1119350471       19.6181825070      -23.9189767656  TIP3      9960            0.0000000000
     54779     10160  TIP3      H1             -1.5276818104       18.9589505797      -24.3523586451  TIP3      9960            0.0000000000
     54780     10160  TIP3      H2             -1.4586502483       20.3391050008      -23.7560744534  TIP3      9960            0.0000000000
     54781     10161  TIP3      OH2           -17.7752990097       18.8112287902      -28.6190713084  TIP3      9961            0.0000000000
     54782     10161  TIP3      H1            -17.2577174524       19.3013785801      -29.2802742744  TIP3      9961            0.0000000000
     54783     10161  TIP3      H2            -18.3602744217       19.5181899151      -28.3107183224  TIP3      9961            0.0000000000
     54784     10162  TIP3      OH2           -12.4570071426       18.8983133643      -24.6984022943  TIP3      9962            0.0000000000
     54785     10162  TIP3      H1            -11.5972195929       19.1307987637      -25.0717928849  TIP3      9962            0.0000000000
     54786     10162  TIP3      H2            -12.2702187989       18.9331852935      -23.7538840296  TIP3      9962            0.0000000000
     54787     10163  TIP3      OH2            -4.8636684554       18.9173973123      -26.8414418618  TIP3      9963            0.0000000000
     54788     10163  TIP3      H1             -5.5265147264       19.2730795464      -27.4503651559  TIP3      9963            0.0000000000
     54789     10163  TIP3      H2             -5.2984556969       18.0980126562      -26.5189624461  TIP3      9963            0.0000000000
     54790     10164  TIP3      OH2           -17.8278399166       34.5685016974      -27.4352010048  TIP3      9964            0.0000000000
     54791     10164  TIP3      H1            -18.7814864255       34.6153602218      -27.6004131909  TIP3      9964            0.0000000000
     54792     10164  TIP3      H2            -17.5363815063       35.3797672900      -27.8988726408  TIP3      9964            0.0000000000
     54793     10165  TIP3      OH2           -16.3946959953       20.8945026151      -30.1893071561  TIP3      9965            0.0000000000
     54794     10165  TIP3      H1            -15.7204618485       20.3133799458      -30.5954181210  TIP3      9965            0.0000000000
     54795     10165  TIP3      H2            -15.9588937100       21.1673509006      -29.3728041666  TIP3      9965            0.0000000000
     54796     10166  TIP3      OH2           -10.9131097210       21.2000828358      -27.7649433123  TIP3      9966            0.0000000000
     54797     10166  TIP3      H1            -10.3598797512       20.6171694927      -27.2284067388  TIP3      9966            0.0000000000
     54798     10166  TIP3      H2            -10.7747139389       22.0305119159      -27.2571339652  TIP3      9966            0.0000000000
     54799     10167  TIP3      OH2            -9.0605300179       36.4042511080      -29.2545522246  TIP3      9967            0.0000000000
     54800     10167  TIP3      H1             -8.1444464311       36.1235348571      -29.4430006321  TIP3      9967            0.0000000000
     54801     10167  TIP3      H2             -9.4998466302       35.6846325297      -29.7481267465  TIP3      9967            0.0000000000
     54802     10168  TIP3      OH2            -2.4051397442       35.3542673071      -26.7498107627  TIP3      9968            0.0000000000
     54803     10168  TIP3      H1             -2.6210233483       34.4455672336      -27.0914740156  TIP3      9968            0.0000000000
     54804     10168  TIP3      H2             -2.5859102728       35.8861055900      -27.5615901029  TIP3      9968            0.0000000000
     54805     10169  TIP3      OH2           -16.0590953042       35.7766460872      -30.5098111027  TIP3      9969            0.0000000000
     54806     10169  TIP3      H1            -16.6216386364       35.9757006879      -29.7447640898  TIP3      9969            0.0000000000
     54807     10169  TIP3      H2            -15.5280443119       35.0572594392      -30.1596699907  TIP3      9969            0.0000000000
     54808     10170  TIP3      OH2            11.3815990112       28.2143735785      -24.5215549987  TIP3      9970            0.0000000000
     54809     10170  TIP3      H1             11.4242331669       29.1673863212      -24.3046336078  TIP3      9970            0.0000000000
     54810     10170  TIP3      H2             10.4343460862       28.0840556042      -24.5786928900  TIP3      9970            0.0000000000
     54811     10171  TIP3      OH2             3.6394721483       31.4949124110      -21.1588685025  TIP3      9971            0.0000000000
     54812     10171  TIP3      H1              3.2201443104       30.6240298815      -21.1840664814  TIP3      9971            0.0000000000
     54813     10171  TIP3      H2              4.5434362004       31.2907850906      -21.4599488001  TIP3      9971            0.0000000000
     54814     10172  TIP3      OH2             0.3713217122       24.8814130210      -25.3530220700  TIP3      9972            0.0000000000
     54815     10172  TIP3      H1             -0.0349429814       25.7294979798      -25.1246361775  TIP3      9972            0.0000000000
     54816     10172  TIP3      H2             -0.4184503459       24.3505015088      -25.5224402110  TIP3      9972            0.0000000000
     54817     10173  TIP3      OH2             0.3562366971       27.4697884115      -23.1060567411  TIP3      9973            0.0000000000
     54818     10173  TIP3      H1              0.8109720687       26.6788371501      -22.7536374354  TIP3      9973            0.0000000000
     54819     10173  TIP3      H2              1.0113999048       27.8649296462      -23.6970800099  TIP3      9973            0.0000000000
     54820     10174  TIP3      OH2             5.0482004991       22.5563679708      -22.6570767202  TIP3      9974            0.0000000000
     54821     10174  TIP3      H1              5.1082322167       23.2972911360      -23.2887279663  TIP3      9974            0.0000000000
     54822     10174  TIP3      H2              4.4417898927       21.9570159103      -23.1181561215  TIP3      9974            0.0000000000
     54823     10175  TIP3      OH2            12.8829242682       22.3787657569      -24.9475933550  TIP3      9975            0.0000000000
     54824     10175  TIP3      H1             13.2008230356       22.0235775921      -24.0882614404  TIP3      9975            0.0000000000
     54825     10175  TIP3      H2             13.4168424859       23.1778672061      -25.0159957963  TIP3      9975            0.0000000000
     54826     10176  TIP3      OH2             1.3594548597       24.8835279769      -22.0467867480  TIP3      9976            0.0000000000
     54827     10176  TIP3      H1              1.4021814282       24.0190697683      -21.5666712058  TIP3      9976            0.0000000000
     54828     10176  TIP3      H2              1.5881990734       24.5514096092      -22.9307584408  TIP3      9976            0.0000000000
     54829     10177  TIP3      OH2             5.7351304056       26.1407762791      -22.5966073693  TIP3      9977            0.0000000000
     54830     10177  TIP3      H1              6.6057567558       25.7832923906      -22.3554947050  TIP3      9977            0.0000000000
     54831     10177  TIP3      H2              5.4576957070       25.4896102480      -23.2757008978  TIP3      9977            0.0000000000
     54832     10178  TIP3      OH2            10.9719613721       30.9744316335      -25.3322723647  TIP3      9978            0.0000000000
     54833     10178  TIP3      H1             10.0104443824       30.9215807585      -25.2856769622  TIP3      9978            0.0000000000
     54834     10178  TIP3      H2             11.1064541756       31.9219207269      -25.5114754936  TIP3      9978            0.0000000000
     54835     10179  TIP3      OH2            14.2744936674       21.9025371450      -22.6267052064  TIP3      9979            0.0000000000
     54836     10179  TIP3      H1             14.5843604299       21.1934166459      -22.0495326349  TIP3      9979            0.0000000000
     54837     10179  TIP3      H2             15.0731281907       22.4406214535      -22.6416712920  TIP3      9979            0.0000000000
     54838     10180  TIP3      OH2             0.9038869497       30.4074003432      -27.2634815237  TIP3      9980            0.0000000000
     54839     10180  TIP3      H1              0.7921158483       30.9617497726      -28.0685214218  TIP3      9980            0.0000000000
     54840     10180  TIP3      H2              0.9743543101       31.1081619427      -26.5715750421  TIP3      9980            0.0000000000
     54841     10181  TIP3      OH2             7.5881603169       18.7291832088      -21.7386072225  TIP3      9981            0.0000000000
     54842     10181  TIP3      H1              7.6796336776       17.7936302418      -21.4986171126  TIP3      9981            0.0000000000
     54843     10181  TIP3      H2              6.6596347541       18.9119302585      -21.4503909508  TIP3      9981            0.0000000000
     54844     10182  TIP3      OH2            12.5421837354       33.4021726616      -23.6272887644  TIP3      9982            0.0000000000
     54845     10182  TIP3      H1             13.2077014557       32.8137137318      -23.9928261113  TIP3      9982            0.0000000000
     54846     10182  TIP3      H2             12.9640330769       34.2714124298      -23.6428932621  TIP3      9982            0.0000000000
     54847     10183  TIP3      OH2            10.1486080032       25.9069335338      -29.9678877879  TIP3      9983            0.0000000000
     54848     10183  TIP3      H1             10.4844996789       25.6784452904      -29.0982587324  TIP3      9983            0.0000000000
     54849     10183  TIP3      H2             10.6380667149       25.2532682036      -30.5065238728  TIP3      9983            0.0000000000
     54850     10184  TIP3      OH2             5.0230776363       28.4300785280      -23.8863841932  TIP3      9984            0.0000000000
     54851     10184  TIP3      H1              4.8986102520       27.8224095999      -24.6320004437  TIP3      9984            0.0000000000
     54852     10184  TIP3      H2              5.3334570153       27.8009481406      -23.1962055307  TIP3      9984            0.0000000000
     54853     10185  TIP3      OH2             9.0393705755       33.6646697570      -23.2409362545  TIP3      9985            0.0000000000
     54854     10185  TIP3      H1              9.9759544661       33.4836823317      -23.0722989443  TIP3      9985            0.0000000000
     54855     10185  TIP3      H2              9.0877274537       33.7956961851      -24.2043731998  TIP3      9985            0.0000000000
     54856     10186  TIP3      OH2            16.0955500816       18.4432986429      -28.1433681742  TIP3      9986            0.0000000000
     54857     10186  TIP3      H1             15.1879448108       18.5806420508      -27.7926123440  TIP3      9986            0.0000000000
     54858     10186  TIP3      H2             16.3842814016       19.3697917931      -28.2847092063  TIP3      9986            0.0000000000
     54859     10187  TIP3      OH2             3.8804087784       27.0402683334      -26.6831945724  TIP3      9987            0.0000000000
     54860     10187  TIP3      H1              3.6262528671       27.8914282872      -27.0957338238  TIP3      9987            0.0000000000
     54861     10187  TIP3      H2              3.3625843370       26.4051723312      -27.1929106663  TIP3      9987            0.0000000000
     54862     10188  TIP3      OH2            17.2750305099       32.9377818549      -29.9163677601  TIP3      9988            0.0000000000
     54863     10188  TIP3      H1             17.6184250390       33.8626533576      -29.8709438277  TIP3      9988            0.0000000000
     54864     10188  TIP3      H2             18.1030155921       32.4231389866      -29.7770773699  TIP3      9988            0.0000000000
     54865     10189  TIP3      OH2             8.7958259307       36.9691638843      -26.9172673340  TIP3      9989            0.0000000000
     54866     10189  TIP3      H1              9.0351804848       36.0291483027      -26.9155004059  TIP3      9989            0.0000000000
     54867     10189  TIP3      H2              9.0503131235       37.1536682799      -26.0061899271  TIP3      9989            0.0000000000
     54868     10190  TIP3      OH2             3.4667212203       34.8636079541      -24.7373233265  TIP3      9990            0.0000000000
     54869     10190  TIP3      H1              3.5418934714       34.6974419857      -23.7682560756  TIP3      9990            0.0000000000
     54870     10190  TIP3      H2              2.5081663645       34.8251461002      -24.8251163567  TIP3      9990            0.0000000000
     54871     10191  TIP3      OH2            12.5159762241       35.0992661087      -29.4358444287  TIP3      9991            0.0000000000
     54872     10191  TIP3      H1             13.1792037457       34.5548695691      -29.9056854176  TIP3      9991            0.0000000000
     54873     10191  TIP3      H2             12.8808608204       35.1419740939      -28.5253016304  TIP3      9991            0.0000000000
     54874     10192  TIP3      OH2            12.8256169615       35.5454231344      -26.8482620810  TIP3      9992            0.0000000000
     54875     10192  TIP3      H1             11.8661444711       35.3596200149      -26.6734039731  TIP3      9992            0.0000000000
     54876     10192  TIP3      H2             13.1865629740       35.1447587828      -26.0471886110  TIP3      9992            0.0000000000
     54877     10193  TIP3      OH2             4.8194974517       19.5387593428      -21.0181254397  TIP3      9993            0.0000000000
     54878     10193  TIP3      H1              3.9626853890       19.2581526016      -21.3594724350  TIP3      9993            0.0000000000
     54879     10193  TIP3      H2              4.5314229333       20.1830884872      -20.3588576066  TIP3      9993            0.0000000000
     54880     10194  TIP3      OH2             9.6124951544       21.7476642927      -30.1086098976  TIP3      9994            0.0000000000
     54881     10194  TIP3      H1              9.3575776336       21.6821249222      -29.1774339481  TIP3      9994            0.0000000000
     54882     10194  TIP3      H2              9.0078003622       21.0881541469      -30.4966448288  TIP3      9994            0.0000000000
     54883     10195  TIP3      OH2             5.2020690082       24.3416149070      -24.6141062994  TIP3      9995            0.0000000000
     54884     10195  TIP3      H1              4.2384972289       24.1612717482      -24.7566340229  TIP3      9995            0.0000000000
     54885     10195  TIP3      H2              5.5790941263       24.0477587884      -25.4724188894  TIP3      9995            0.0000000000
     54886     10196  TIP3      OH2            10.5404930904       25.2787880941      -25.7625828995  TIP3      9996            0.0000000000
     54887     10196  TIP3      H1             10.4043017861       26.0540568611      -26.3243359583  TIP3      9996            0.0000000000
     54888     10196  TIP3      H2             11.4145912501       24.9877907574      -26.0631606361  TIP3      9996            0.0000000000
     54889     10197  TIP3      OH2             5.6681568495       21.7422862846      -31.0190335677  TIP3      9997            0.0000000000
     54890     10197  TIP3      H1              5.2850094023       21.5717606362      -30.1278317154  TIP3      9997            0.0000000000
     54891     10197  TIP3      H2              5.3087264858       22.6007823047      -31.2962690088  TIP3      9997            0.0000000000
     54892     10198  TIP3      OH2            -0.3211299553       21.7198835914      -23.6303310025  TIP3      9998            0.0000000000
     54893     10198  TIP3      H1              0.4255607440       21.7719613904      -23.0153928404  TIP3      9998            0.0000000000
     54894     10198  TIP3      H2              0.0996839852       21.5232677817      -24.4841238068  TIP3      9998            0.0000000000
     54895     10199  TIP3      OH2             0.4489963716       22.4625521022      -28.4958826760  TIP3      9999            0.0000000000
     54896     10199  TIP3      H1              0.9950033925       22.9053907405      -29.1765401680  TIP3      9999            0.0000000000
     54897     10199  TIP3      H2             -0.1574423315       23.1962058906      -28.2602654586  TIP3      9999            0.0000000000
     54898     10200  TIP3      OH2             8.1744463566       21.8057204346      -23.8530718569  TIP3      10000           0.0000000000
     54899     10200  TIP3      H1              7.2656929599       22.0729587054      -23.6238724893  TIP3      10000           0.0000000000
     54900     10200  TIP3      H2              8.4594566423       21.4231337023      -23.0075861219  TIP3      10000           0.0000000000
     54901     10201  TIP3      OH2             2.6030261816       23.5839586126      -24.8099905247  TIP3      10001           0.0000000000
     54902     10201  TIP3      H1              1.7901413235       23.8915107732      -25.2688647590  TIP3      10001           0.0000000000
     54903     10201  TIP3      H2              2.7127205487       22.6399038294      -25.1006573199  TIP3      10001           0.0000000000
     54904     10202  TIP3      OH2             6.1699267329       23.8134399243      -27.0885843829  TIP3      10002           0.0000000000
     54905     10202  TIP3      H1              7.0792764058       23.8167893015      -27.4332135239  TIP3      10002           0.0000000000
     54906     10202  TIP3      H2              5.7306812899       24.4888900152      -27.6452109289  TIP3      10002           0.0000000000
     54907     10203  TIP3      OH2             5.0243762287       25.0352464004      -29.4984515289  TIP3      10003           0.0000000000
     54908     10203  TIP3      H1              4.5698092546       24.5367982158      -30.1910195771  TIP3      10003           0.0000000000
     54909     10203  TIP3      H2              5.7546595990       25.4269209739      -30.0068850105  TIP3      10003           0.0000000000
     54910     10204  TIP3      OH2             8.4958676347       24.8366065192      -21.5338819270  TIP3      10004           0.0000000000
     54911     10204  TIP3      H1              9.2412356987       24.8589460126      -22.1388455701  TIP3      10004           0.0000000000
     54912     10204  TIP3      H2              8.8401903869       25.1415325128      -20.6845751742  TIP3      10004           0.0000000000
     54913     10205  TIP3      OH2             3.4025805522       21.1406740715      -25.2292668633  TIP3      10005           0.0000000000
     54914     10205  TIP3      H1              2.9666583960       20.4140928307      -24.7131880839  TIP3      10005           0.0000000000
     54915     10205  TIP3      H2              4.0461588569       20.6276440007      -25.7328548499  TIP3      10005           0.0000000000
     54916     10206  TIP3      OH2             8.3711132464       29.1749238052      -27.0606609691  TIP3      10006           0.0000000000
     54917     10206  TIP3      H1              7.6197049975       28.7161405617      -27.4982981029  TIP3      10006           0.0000000000
     54918     10206  TIP3      H2              7.8904405703       29.6416026016      -26.3279070178  TIP3      10006           0.0000000000
     54919     10207  TIP3      OH2            11.9143175186       22.5696745733      -29.0865399006  TIP3      10007           0.0000000000
     54920     10207  TIP3      H1             11.1068219542       22.3744176053      -29.6110256695  TIP3      10007           0.0000000000
     54921     10207  TIP3      H2             11.7941204761       23.5031803109      -28.8368409627  TIP3      10007           0.0000000000
     54922     10208  TIP3      OH2            12.3970545583       24.8332701251      -27.9013635905  TIP3      10008           0.0000000000
     54923     10208  TIP3      H1             13.0450178387       24.2721989930      -27.4058969779  TIP3      10008           0.0000000000
     54924     10208  TIP3      H2             13.0001700646       25.1694918350      -28.5789760769  TIP3      10008           0.0000000000
     54925     10209  TIP3      OH2             3.2336862046       28.5740334638      -21.7655986089  TIP3      10009           0.0000000000
     54926     10209  TIP3      H1              3.7226233923       28.8919153487      -22.5476933552  TIP3      10009           0.0000000000
     54927     10209  TIP3      H2              3.0133989379       27.6898738445      -22.0740006116  TIP3      10009           0.0000000000
     54928     10210  TIP3      OH2            10.2142729623       30.6529421964      -28.4120296898  TIP3      10010           0.0000000000
     54929     10210  TIP3      H1              9.8769311605       31.5784537757      -28.3683276881  TIP3      10010           0.0000000000
     54930     10210  TIP3      H2              9.5354066820       30.1411163966      -27.9227519981  TIP3      10010           0.0000000000
     54931     10211  TIP3      OH2            17.5931300010       24.3855911781      -27.8453155200  TIP3      10011           0.0000000000
     54932     10211  TIP3      H1             16.9090233502       24.3503237721      -28.5341719183  TIP3      10011           0.0000000000
     54933     10211  TIP3      H2             17.7100210616       25.3522360759      -27.7311927403  TIP3      10011           0.0000000000
     54934     10212  TIP3      OH2            15.5178382509       33.2276500511      -27.7066365435  TIP3      10012           0.0000000000
     54935     10212  TIP3      H1             15.4912297356       32.9028506573      -26.7916463757  TIP3      10012           0.0000000000
     54936     10212  TIP3      H2             16.2244867313       32.7062426994      -28.1320352904  TIP3      10012           0.0000000000
     54937     10213  TIP3      OH2             5.5629154349       32.1523629753      -23.9087261980  TIP3      10013           0.0000000000
     54938     10213  TIP3      H1              5.9524218083       33.0416980487      -23.9232207410  TIP3      10013           0.0000000000
     54939     10213  TIP3      H2              4.6981950032       32.2337957873      -24.3324762270  TIP3      10013           0.0000000000
     54940     10214  TIP3      OH2             1.8382208402       27.3553871898      -29.5992711574  TIP3      10014           0.0000000000
     54941     10214  TIP3      H1              2.2662277700       28.1003406365      -29.1294393105  TIP3      10014           0.0000000000
     54942     10214  TIP3      H2              0.8798760283       27.5038904809      -29.4530761695  TIP3      10014           0.0000000000
     54943     10215  TIP3      OH2             7.0431511105       30.0369838770      -24.9387329419  TIP3      10015           0.0000000000
     54944     10215  TIP3      H1              6.5851560957       30.8553970581      -24.6484506301  TIP3      10015           0.0000000000
     54945     10215  TIP3      H2              6.7046357194       29.4373728636      -24.2541051896  TIP3      10015           0.0000000000
     54946     10216  TIP3      OH2             6.4297540221       34.7977300296      -25.3058460719  TIP3      10016           0.0000000000
     54947     10216  TIP3      H1              5.5176428321       34.8260183036      -24.9624824561  TIP3      10016           0.0000000000
     54948     10216  TIP3      H2              6.8605358578       35.5828894711      -24.9043469235  TIP3      10016           0.0000000000
     54949     10217  TIP3      OH2            18.1965028294       35.3981729847      -29.5717924733  TIP3      10017           0.0000000000
     54950     10217  TIP3      H1             18.8459217562       36.1315934908      -29.6474045592  TIP3      10017           0.0000000000
     54951     10217  TIP3      H2             17.3469645043       35.8871374843      -29.4599806812  TIP3      10017           0.0000000000
     54952     10218  TIP3      OH2             7.4708260181       32.4446003042      -31.2865630899  TIP3      10018           0.0000000000
     54953     10218  TIP3      H1              7.5182219538       31.8136788188      -32.0176623365  TIP3      10018           0.0000000000
     54954     10218  TIP3      H2              6.9935143345       31.9263330142      -30.6261190252  TIP3      10018           0.0000000000
     54955     10219  TIP3      OH2             6.4065111836       31.8688470656      -28.6114952752  TIP3      10019           0.0000000000
     54956     10219  TIP3      H1              7.1243256572       31.3865327699      -28.1795752084  TIP3      10019           0.0000000000
     54957     10219  TIP3      H2              6.6807637390       32.7945464255      -28.4025311490  TIP3      10019           0.0000000000
     54958     10220  TIP3      OH2             3.1371243226       29.1961978537      -28.1539833841  TIP3      10020           0.0000000000
     54959     10220  TIP3      H1              2.2931115600       29.5828986841      -27.8222525709  TIP3      10020           0.0000000000
     54960     10220  TIP3      H2              3.6374350188       29.9912771178      -28.4122844358  TIP3      10020           0.0000000000
     54961     10221  TIP3      OH2            11.6945662245       20.9037293388      -26.9255955035  TIP3      10021           0.0000000000
     54962     10221  TIP3      H1             11.9699865438       21.4650178214      -27.6845356451  TIP3      10021           0.0000000000
     54963     10221  TIP3      H2             12.1680685591       21.3292513402      -26.1718752228  TIP3      10021           0.0000000000
     54964     10222  TIP3      OH2             9.1440524674       33.1295477752      -28.5804725720  TIP3      10022           0.0000000000
     54965     10222  TIP3      H1              8.3350054183       33.5933252907      -28.3153710966  TIP3      10022           0.0000000000
     54966     10222  TIP3      H2              9.7449352567       33.5621482008      -27.9326996256  TIP3      10022           0.0000000000
     54967     10223  TIP3      OH2             8.8321896828       23.1702225593      -26.3898196376  TIP3      10023           0.0000000000
     54968     10223  TIP3      H1              9.3062477211       23.9875642598      -26.1167832770  TIP3      10023           0.0000000000
     54969     10223  TIP3      H2              8.4538752917       22.8809168821      -25.5319591982  TIP3      10023           0.0000000000
     54970     10224  TIP3      OH2             9.4091811298       20.1058286430      -25.5710892357  TIP3      10024           0.0000000000
     54971     10224  TIP3      H1              8.9512283311       20.7331413333      -24.9748683958  TIP3      10024           0.0000000000
     54972     10224  TIP3      H2             10.1353424752       20.6345560627      -25.9763253494  TIP3      10024           0.0000000000
     54973     10225  TIP3      OH2             6.8945098234       34.5233260266      -27.9138403396  TIP3      10025           0.0000000000
     54974     10225  TIP3      H1              7.2553835882       35.3697145943      -28.2624108722  TIP3      10025           0.0000000000
     54975     10225  TIP3      H2              6.9005208457       34.6778053897      -26.9313886761  TIP3      10025           0.0000000000
     54976     10226  TIP3      OH2             5.0980414973       21.1738818838      -28.4262930663  TIP3      10026           0.0000000000
     54977     10226  TIP3      H1              5.0585442118       21.9620876875      -27.8528374004  TIP3      10026           0.0000000000
     54978     10226  TIP3      H2              6.0226011720       20.8948863550      -28.2621738245  TIP3      10026           0.0000000000
     54979     10227  TIP3      OH2             3.5695000562       31.6771057427      -29.5513515805  TIP3      10027           0.0000000000
     54980     10227  TIP3      H1              4.3734330876       31.9387107389      -29.0542296544  TIP3      10027           0.0000000000
     54981     10227  TIP3      H2              3.9868046283       31.1615718738      -30.2589639335  TIP3      10027           0.0000000000
     54982     10228  TIP3      OH2             1.7036675233       24.4983132126      -30.2579833721  TIP3      10028           0.0000000000
     54983     10228  TIP3      H1              2.1234912843       25.3150061037      -29.9362774917  TIP3      10028           0.0000000000
     54984     10228  TIP3      H2              1.0222454050       24.8697418426      -30.8415376448  TIP3      10028           0.0000000000
     54985     10229  TIP3      OH2             1.2062864181       32.6968984590      -25.6940463279  TIP3      10029           0.0000000000
     54986     10229  TIP3      H1              0.5682408229       33.3674570643      -25.3967956674  TIP3      10029           0.0000000000
     54987     10229  TIP3      H2              1.6738231480       33.2157606271      -26.3630893883  TIP3      10029           0.0000000000
     54988     10230  TIP3      OH2             9.5677997237       34.2255795140      -31.1714900136  TIP3      10030           0.0000000000
     54989     10230  TIP3      H1              8.9383873284       33.5258444648      -30.8680125994  TIP3      10030           0.0000000000
     54990     10230  TIP3      H2             10.4000468478       33.7253570773      -31.2006801795  TIP3      10030           0.0000000000
     54991     10231  TIP3      OH2            14.2269842369       33.6911261541      -30.9458591294  TIP3      10031           0.0000000000
     54992     10231  TIP3      H1             14.8784948485       33.2906421333      -30.3503179228  TIP3      10031           0.0000000000
     54993     10231  TIP3      H2             14.7651109297       33.8679487445      -31.7545120380  TIP3      10031           0.0000000000
     54994     10232  TIP3      OH2             5.2234931186       29.7783146763      -31.0683091588  TIP3      10032           0.0000000000
     54995     10232  TIP3      H1              5.6700924459       29.6958539365      -30.2040729694  TIP3      10032           0.0000000000
     54996     10232  TIP3      H2              5.9513882700       29.5076547080      -31.6729340472  TIP3      10032           0.0000000000
     54997     10233  TIP3      OH2            10.8363326813       30.9987137292      -31.0119862589  TIP3      10033           0.0000000000
     54998     10233  TIP3      H1             10.4482629736       30.9302347021      -30.1126377720  TIP3      10033           0.0000000000
     54999     10233  TIP3      H2             10.7043681608       30.0745414667      -31.3163101952  TIP3      10033           0.0000000000
     55000     10234  TIP3      OH2             6.2587076151       27.9729124831      -28.4109617749  TIP3      10034           0.0000000000
     55001     10234  TIP3      H1              5.5807904436       27.4401805312      -27.9623156282  TIP3      10034           0.0000000000
     55002     10234  TIP3      H2              6.5854277164       27.3428381963      -29.0821239655  TIP3      10034           0.0000000000
     55003     10235  TIP3      OH2             7.3842262973       26.2732009188      -30.5026533002  TIP3      10035           0.0000000000
     55004     10235  TIP3      H1              7.2047072541       26.3935479587      -31.4574413485  TIP3      10035           0.0000000000
     55005     10235  TIP3      H2              8.3523471928       26.1312032022      -30.4796618433  TIP3      10035           0.0000000000
     55006     10236  TIP3      OH2            16.6490966858       28.3633201377      -31.0220419477  TIP3      10036           0.0000000000
     55007     10236  TIP3      H1             16.4566078351       28.0496579218      -31.9312992593  TIP3      10036           0.0000000000
     55008     10236  TIP3      H2             16.5410644867       29.3364319998      -31.1480517686  TIP3      10036           0.0000000000
     55009     10237  TIP3      OH2             7.4143033956       36.6238261365      -29.7477847252  TIP3      10037           0.0000000000
     55010     10237  TIP3      H1              8.3873328363       36.6800603728      -29.5709287816  TIP3      10037           0.0000000000
     55011     10237  TIP3      H2              7.2422547333       37.5691219508      -29.7853038296  TIP3      10037           0.0000000000
     55012     10238  TIP3      OH2             0.7071120550       31.2913060858      -29.7804675755  TIP3      10038           0.0000000000
     55013     10238  TIP3      H1              1.6841050151       31.2976478698      -29.8210546480  TIP3      10038           0.0000000000
     55014     10238  TIP3      H2              0.4774727255       30.8014466839      -30.6055170136  TIP3      10038           0.0000000000
     55015     10239  TIP3      OH2            -0.6872409052       36.5691091341      -25.2460496370  TIP3      10039           0.0000000000
     55016     10239  TIP3      H1             -1.4246598369       36.1451232955      -25.7366040652  TIP3      10039           0.0000000000
     55017     10239  TIP3      H2             -0.6457776420       35.9980769155      -24.4546093867  TIP3      10039           0.0000000000
     55018     10240  TIP3      OH2             0.2332098045       34.7864081895      -23.3141167895  TIP3      10040           0.0000000000
     55019     10240  TIP3      H1              0.8083554501       34.0484638527      -23.0612659965  TIP3      10040           0.0000000000
     55020     10240  TIP3      H2             -0.0370773275       35.0595045549      -22.4259481557  TIP3      10040           0.0000000000
     55021     10241  TIP3      OH2            17.8693744949       27.1442993270      -28.7842369464  TIP3      10041           0.0000000000
     55022     10241  TIP3      H1             17.2506887888       27.4542814046      -29.4831466723  TIP3      10041           0.0000000000
     55023     10241  TIP3      H2             17.7350370948       27.7625916257      -28.0530304826  TIP3      10041           0.0000000000
     55024     10242  TIP3      OH2            15.9433380810       24.2467799403      -30.3877619562  TIP3      10042           0.0000000000
     55025     10242  TIP3      H1             16.2554214661       24.8503790776      -31.0672505720  TIP3      10042           0.0000000000
     55026     10242  TIP3      H2             15.8012918170       23.4561502932      -30.9383528206  TIP3      10042           0.0000000000
     55027     10243  TIP3      OH2             0.6031304434       28.2070150763      -20.3981632106  TIP3      10043           0.0000000000
     55028     10243  TIP3      H1             -0.0046439873       28.0728865120      -21.1490189014  TIP3      10043           0.0000000000
     55029     10243  TIP3      H2              1.2766352450       27.5491846093      -20.6120386524  TIP3      10043           0.0000000000
     55030     10244  TIP3      OH2            15.6460055239       21.6956198184      -31.5285949100  TIP3      10044           0.0000000000
     55031     10244  TIP3      H1             16.0388642045       21.3341094849      -30.7100720844  TIP3      10044           0.0000000000
     55032     10244  TIP3      H2             14.6978110990       21.5635672092      -31.3977027869  TIP3      10044           0.0000000000
     55033     10245  TIP3      OH2            14.7326232833       23.7776901003      -26.7282897529  TIP3      10045           0.0000000000
     55034     10245  TIP3      H1             15.1056671180       22.8729969963      -26.7201828756  TIP3      10045           0.0000000000
     55035     10245  TIP3      H2             15.4810727531       24.2767059878      -26.3576152140  TIP3      10045           0.0000000000
     55036     10246  TIP3      OH2            16.0221292519       21.0227107004      -26.2689030281  TIP3      10046           0.0000000000
     55037     10246  TIP3      H1             16.1160349434       20.6177183867      -25.3937306424  TIP3      10046           0.0000000000
     55038     10246  TIP3      H2             15.2664193715       20.5291847384      -26.6155360589  TIP3      10046           0.0000000000
     55039     10247  TIP3      OH2            -0.8315608520       24.3212770061      -20.3976156268  TIP3      10047           0.0000000000
     55040     10247  TIP3      H1             -0.3668313050       23.4587225556      -20.2971694510  TIP3      10047           0.0000000000
     55041     10247  TIP3      H2             -0.1588444033       24.7804180464      -20.9290892618  TIP3      10047           0.0000000000
     55042     10248  TIP3      OH2            17.3302069638       20.7591828001      -29.3719202785  TIP3      10048           0.0000000000
     55043     10248  TIP3      H1             17.7105182469       20.2565889314      -30.1235379252  TIP3      10048           0.0000000000
     55044     10248  TIP3      H2             17.9920568775       21.4629428198      -29.2238751381  TIP3      10048           0.0000000000
     55045     10249  TIP3      OH2            -0.1821426251       20.9272234363      -26.3219075884  TIP3      10049           0.0000000000
     55046     10249  TIP3      H1             -1.1445144585       21.0199070173      -26.3941227276  TIP3      10049           0.0000000000
     55047     10249  TIP3      H2              0.0743164465       21.3836778232      -27.1500796064  TIP3      10049           0.0000000000
     55048     10250  TIP3      OH2            14.7476178300       35.5397582018      -24.3508959545  TIP3      10050           0.0000000000
     55049     10250  TIP3      H1             15.3436438571       35.6719530732      -25.1018676770  TIP3      10050           0.0000000000
     55050     10250  TIP3      H2             14.9780383117       36.2965542299      -23.7924540012  TIP3      10050           0.0000000000
     55051     10251  TIP3      OH2             3.3790670396       33.9675342552      -22.2657568828  TIP3      10051           0.0000000000
     55052     10251  TIP3      H1              3.4132971734       33.0183414766      -21.9963479404  TIP3      10051           0.0000000000
     55053     10251  TIP3      H2              4.1615393729       34.2881137861      -21.7793639955  TIP3      10051           0.0000000000
     55054     10252  TIP3      OH2             6.1694745690       34.4287374880      -21.6272821835  TIP3      10052           0.0000000000
     55055     10252  TIP3      H1              6.7491666364       33.6511066510      -21.7230333653  TIP3      10052           0.0000000000
     55056     10252  TIP3      H2              6.5567647473       34.8491439441      -20.8428970250  TIP3      10052           0.0000000000
     55057     10253  TIP3      OH2            16.8937039781       19.4274990710      -23.8759494773  TIP3      10053           0.0000000000
     55058     10253  TIP3      H1             17.5816184051       18.8984015720      -24.3124261347  TIP3      10053           0.0000000000
     55059     10253  TIP3      H2             17.4251581624       20.2275901484      -23.6782578972  TIP3      10053           0.0000000000
     55060     10254  TIP3      OH2             2.4110936085       18.9098879386      -24.3601256343  TIP3      10054           0.0000000000
     55061     10254  TIP3      H1              1.6262027875       18.7379600813      -24.9008264322  TIP3      10054           0.0000000000
     55062     10254  TIP3      H2              2.7443008552       18.0064776109      -24.2008492806  TIP3      10054           0.0000000000
     55063     10255  TIP3      OH2             1.0822438945       18.6856567786      -28.6296756452  TIP3      10055           0.0000000000
     55064     10255  TIP3      H1              1.3758950744       19.3928782604      -29.2380473145  TIP3      10055           0.0000000000
     55065     10255  TIP3      H2              0.3984510467       19.1533879877      -28.1148254613  TIP3      10055           0.0000000000
     55066     10256  TIP3      OH2             6.5561833181       18.4059483730      -24.3160279254  TIP3      10056           0.0000000000
     55067     10256  TIP3      H1              7.4173494614       18.4487215754      -24.7455665089  TIP3      10056           0.0000000000
     55068     10256  TIP3      H2              6.7822643702       18.5817120851      -23.3897145512  TIP3      10056           0.0000000000
     55069     10257  TIP3      OH2            13.8248363432       19.1344730219      -26.6953366721  TIP3      10057           0.0000000000
     55070     10257  TIP3      H1             13.0312982461       19.6721651110      -26.8819279415  TIP3      10057           0.0000000000
     55071     10257  TIP3      H2             13.4189419053       18.2719644448      -26.4590999798  TIP3      10057           0.0000000000
     55072     10258  TIP3      OH2             0.7803251254       34.6766334383      -27.5565757051  TIP3      10058           0.0000000000
     55073     10258  TIP3      H1              0.1008644115       34.7797977373      -28.2580868497  TIP3      10058           0.0000000000
     55074     10258  TIP3      H2              0.4972493278       35.4143395974      -26.9962134280  TIP3      10058           0.0000000000
     55075     10259  TIP3      OH2             2.4159309166       20.7930436757      -30.1235461078  TIP3      10059           0.0000000000
     55076     10259  TIP3      H1              3.1189270133       20.3063634189      -30.5951956798  TIP3      10059           0.0000000000
     55077     10259  TIP3      H2              2.8654721230       20.9751633617      -29.2844195300  TIP3      10059           0.0000000000
     55078     10260  TIP3      OH2             7.8528734478       20.9261440928      -27.6251144314  TIP3      10060           0.0000000000
     55079     10260  TIP3      H1              8.3264016232       20.3815649893      -26.9628553129  TIP3      10060           0.0000000000
     55080     10260  TIP3      H2              8.1542263610       21.8195461052      -27.3559806104  TIP3      10060           0.0000000000
     55081     10261  TIP3      OH2            10.0848566459       36.4670203060      -29.8033530022  TIP3      10061           0.0000000000
     55082     10261  TIP3      H1             10.9684420051       36.0774573540      -29.6238698426  TIP3      10061           0.0000000000
     55083     10261  TIP3      H2              9.6581655626       35.6710924391      -30.1872901488  TIP3      10061           0.0000000000
     55084     10262  TIP3      OH2            16.6843102314       35.5714634769      -26.7212960432  TIP3      10062           0.0000000000
     55085     10262  TIP3      H1             16.4168797345       34.7309119907      -27.1519220663  TIP3      10062           0.0000000000
     55086     10262  TIP3      H2             16.5535571904       36.2164957388      -27.4391520925  TIP3      10062           0.0000000000
     55087     10263  TIP3      OH2             2.1146047703       35.2112702813      -30.8670374060  TIP3      10063           0.0000000000
     55088     10263  TIP3      H1              1.8204251892       35.2115261188      -29.9427881677  TIP3      10063           0.0000000000
     55089     10263  TIP3      H2              3.0388699282       34.9265094764      -30.7818279532  TIP3      10063           0.0000000000
     55090     10264  TIP3      OH2            30.4117035850       28.7267562513      -24.6621461514  TIP3      10064           0.0000000000
     55091     10264  TIP3      H1             30.0653543722       29.2450153875      -23.9278330610  TIP3      10064           0.0000000000
     55092     10264  TIP3      H2             29.7243835315       28.8102787242      -25.3400289867  TIP3      10064           0.0000000000
     55093     10265  TIP3      OH2            29.0568368296       27.1102817524      -21.2526196108  TIP3      10065           0.0000000000
     55094     10265  TIP3      H1             29.1606291159       26.9098776322      -20.3088481557  TIP3      10065           0.0000000000
     55095     10265  TIP3      H2             29.4052692668       26.2853406384      -21.6196291755  TIP3      10065           0.0000000000
     55096     10266  TIP3      OH2            20.5977362002       27.1571899208      -23.5158031509  TIP3      10066           0.0000000000
     55097     10266  TIP3      H1             20.0862389670       26.4478728243      -23.0767462376  TIP3      10066           0.0000000000
     55098     10266  TIP3      H2             19.9135602687       27.5542529343      -24.0879679889  TIP3      10066           0.0000000000
     55099     10267  TIP3      OH2            24.1439236705       22.2057926298      -22.8111433960  TIP3      10067           0.0000000000
     55100     10267  TIP3      H1             23.9719694702       23.0030283531      -23.3450845212  TIP3      10067           0.0000000000
     55101     10267  TIP3      H2             23.5185946778       21.5678559198      -23.2010962907  TIP3      10067           0.0000000000
     55102     10268  TIP3      OH2            31.6932480175       22.8012338191      -24.6341645148  TIP3      10068           0.0000000000
     55103     10268  TIP3      H1             32.1523580169       22.2523672749      -23.9491439521  TIP3      10068           0.0000000000
     55104     10268  TIP3      H2             32.4287178367       23.2955823352      -25.0426012663  TIP3      10068           0.0000000000
     55105     10269  TIP3      OH2            20.4609934021       24.5737543897      -22.2392876360  TIP3      10069           0.0000000000
     55106     10269  TIP3      H1             21.1937932637       24.1620083504      -21.7868390415  TIP3      10069           0.0000000000
     55107     10269  TIP3      H2             20.5940971230       24.2677765057      -23.1649404089  TIP3      10069           0.0000000000
     55108     10270  TIP3      OH2            32.9383900164       21.5296824422      -22.6254505307  TIP3      10070           0.0000000000
     55109     10270  TIP3      H1             32.2260781913       21.2316158712      -22.0253556609  TIP3      10070           0.0000000000
     55110     10270  TIP3      H2             33.4523747068       22.1146561627      -22.0344917228  TIP3      10070           0.0000000000
     55111     10271  TIP3      OH2            19.7600005816       30.1287223256      -27.1900837216  TIP3      10071           0.0000000000
     55112     10271  TIP3      H1             19.3763143371       30.5113268654      -27.9985014374  TIP3      10071           0.0000000000
     55113     10271  TIP3      H2             19.8975761254       30.9072614048      -26.6171255475  TIP3      10071           0.0000000000
     55114     10272  TIP3      OH2            28.6718418624       27.3876743609      -27.0292783758  TIP3      10072           0.0000000000
     55115     10272  TIP3      H1             28.1489321316       28.1835891009      -27.2651567079  TIP3      10072           0.0000000000
     55116     10272  TIP3      H2             29.5353291899       27.6064003481      -27.4631267335  TIP3      10072           0.0000000000
     55117     10273  TIP3      OH2            28.8383986808       26.5444888672      -30.0044760562  TIP3      10073           0.0000000000
     55118     10273  TIP3      H1             29.6439802452       26.9261817262      -29.5959537181  TIP3      10073           0.0000000000
     55119     10273  TIP3      H2             29.0684524366       25.6011285478      -29.9908107733  TIP3      10073           0.0000000000
     55120     10274  TIP3      OH2            32.4912137879       27.2564329308      -25.8335877573  TIP3      10074           0.0000000000
     55121     10274  TIP3      H1             31.9094443541       27.9733918243      -25.5100074614  TIP3      10074           0.0000000000
     55122     10274  TIP3      H2             33.0962182081       27.1111923229      -25.0862875136  TIP3      10074           0.0000000000
     55123     10275  TIP3      OH2            25.2808369905       32.1271700268      -21.4546605282  TIP3      10075           0.0000000000
     55124     10275  TIP3      H1             25.4043852365       31.5021266800      -22.1663860158  TIP3      10075           0.0000000000
     55125     10275  TIP3      H2             25.7332753576       31.7016023634      -20.7143718523  TIP3      10075           0.0000000000
     55126     10276  TIP3      OH2            31.0577416083       27.1977082864      -28.2768401001  TIP3      10076           0.0000000000
     55127     10276  TIP3      H1             31.7418388811       26.8695013542      -27.6564149243  TIP3      10076           0.0000000000
     55128     10276  TIP3      H2             31.6149604261       27.4384117436      -29.0670804257  TIP3      10076           0.0000000000
     55129     10277  TIP3      OH2            35.1493855955       18.3886319622      -28.2215666171  TIP3      10077           0.0000000000
     55130     10277  TIP3      H1             34.2686012244       18.5606967618      -27.8101738488  TIP3      10077           0.0000000000
     55131     10277  TIP3      H2             35.3917798137       19.2839846808      -28.5115863668  TIP3      10077           0.0000000000
     55132     10278  TIP3      OH2            22.7681192472       27.0815116473      -26.4544031886  TIP3      10078           0.0000000000
     55133     10278  TIP3      H1             22.4804083950       27.9379630322      -26.8368243056  TIP3      10078           0.0000000000
     55134     10278  TIP3      H2             22.0145763480       26.5278898033      -26.6949654169  TIP3      10078           0.0000000000
     55135     10279  TIP3      OH2            36.2279960349       32.8659395738      -29.9482892937  TIP3      10079           0.0000000000
     55136     10279  TIP3      H1             36.3498990211       33.8336307674      -29.8205926623  TIP3      10079           0.0000000000
     55137     10279  TIP3      H2             37.1177914521       32.5950234446      -29.6681233842  TIP3      10079           0.0000000000
     55138     10280  TIP3      OH2            18.5984202070       32.9073813000      -20.5775134766  TIP3      10080           0.0000000000
     55139     10280  TIP3      H1             19.4974480257       32.5415795404      -20.7321771887  TIP3      10080           0.0000000000
     55140     10280  TIP3      H2             18.7744473072       33.2396107622      -19.6791325427  TIP3      10080           0.0000000000
     55141     10281  TIP3      OH2            22.1683400550       35.0288812387      -24.6851547530  TIP3      10081           0.0000000000
     55142     10281  TIP3      H1             22.0545742460       34.9389940485      -23.7288951368  TIP3      10081           0.0000000000
     55143     10281  TIP3      H2             21.8289618151       34.1883727193      -25.0466834013  TIP3      10081           0.0000000000
     55144     10282  TIP3      OH2            31.4071196765       35.5084565343      -29.1509977251  TIP3      10082           0.0000000000
     55145     10282  TIP3      H1             31.8184290367       34.8481661847      -29.7460015292  TIP3      10082           0.0000000000
     55146     10282  TIP3      H2             31.3572511897       34.9817449701      -28.3372267583  TIP3      10082           0.0000000000
     55147     10283  TIP3      OH2            32.3087195346       28.4008975842      -30.2681420141  TIP3      10083           0.0000000000
     55148     10283  TIP3      H1             32.1926596213       28.1885979525      -31.2208182844  TIP3      10083           0.0000000000
     55149     10283  TIP3      H2             33.2852273735       28.3551050386      -30.2626502972  TIP3      10083           0.0000000000
     55150     10284  TIP3      OH2            28.4673678311       21.6972485702      -29.9809790108  TIP3      10084           0.0000000000
     55151     10284  TIP3      H1             28.1882826362       21.4513524604      -29.0905235200  TIP3      10084           0.0000000000
     55152     10284  TIP3      H2             27.8256647905       21.1605640287      -30.4804633133  TIP3      10084           0.0000000000
     55153     10285  TIP3      OH2            23.8775993889       24.4729602429      -24.3368219914  TIP3      10085           0.0000000000
     55154     10285  TIP3      H1             23.0146870323       24.4307216558      -24.7802190582  TIP3      10085           0.0000000000
     55155     10285  TIP3      H2             24.4643580410       24.3624754024      -25.1193866246  TIP3      10085           0.0000000000
     55156     10286  TIP3      OH2            29.7259412529       25.4903191151      -25.6965408219  TIP3      10086           0.0000000000
     55157     10286  TIP3      H1             29.5429783493       26.2430922131      -26.3107270303  TIP3      10086           0.0000000000
     55158     10286  TIP3      H2             30.4119776686       25.0475155576      -26.2482590429  TIP3      10086           0.0000000000
     55159     10287  TIP3      OH2            29.8593663650       24.6576053101      -23.2470127352  TIP3      10087           0.0000000000
     55160     10287  TIP3      H1             29.8813956403       24.9982396944      -24.1648354932  TIP3      10087           0.0000000000
     55161     10287  TIP3      H2             30.5434940359       23.9749913437      -23.3460989654  TIP3      10087           0.0000000000
     55162     10288  TIP3      OH2            24.7919112739       22.1093708920      -30.7325080099  TIP3      10088           0.0000000000
     55163     10288  TIP3      H1             24.3152345877       21.6529920855      -29.9973346403  TIP3      10088           0.0000000000
     55164     10288  TIP3      H2             24.0590518289       22.5138042165      -31.2319633461  TIP3      10088           0.0000000000
     55165     10289  TIP3      OH2            18.7190854938       21.4780042369      -23.7203860717  TIP3      10089           0.0000000000
     55166     10289  TIP3      H1             18.9245359935       22.4158029831      -23.5856731795  TIP3      10089           0.0000000000
     55167     10289  TIP3      H2             19.0675494934       21.3112597563      -24.6173650345  TIP3      10089           0.0000000000
     55168     10290  TIP3      OH2            19.3519293821       22.4887129668      -28.3952126693  TIP3      10090           0.0000000000
     55169     10290  TIP3      H1             19.8888500924       22.8735946645      -29.1204533923  TIP3      10090           0.0000000000
     55170     10290  TIP3      H2             18.7339228896       23.2428039306      -28.2407510241  TIP3      10090           0.0000000000
     55171     10291  TIP3      OH2            27.0037285608       22.0412921609      -23.6232147010  TIP3      10091           0.0000000000
     55172     10291  TIP3      H1             26.0986031008       21.8313978609      -23.3291144150  TIP3      10091           0.0000000000
     55173     10291  TIP3      H2             27.3518875543       22.4235716867      -22.7863367456  TIP3      10091           0.0000000000
     55174     10292  TIP3      OH2            20.9279103722       23.5935792430      -24.8431891258  TIP3      10092           0.0000000000
     55175     10292  TIP3      H1             20.4125765177       23.6081410401      -25.6624765289  TIP3      10092           0.0000000000
     55176     10292  TIP3      H2             21.4049474119       22.7361962086      -24.9437359398  TIP3      10092           0.0000000000
     55177     10293  TIP3      OH2            25.0680662594       24.1141593863      -26.7976829559  TIP3      10093           0.0000000000
     55178     10293  TIP3      H1             25.8801437746       23.8491181932      -27.2520198248  TIP3      10093           0.0000000000
     55179     10293  TIP3      H2             24.5495580456       24.4982778183      -27.5318819668  TIP3      10093           0.0000000000
     55180     10294  TIP3      OH2            23.7884003323       25.0210968284      -29.4469254893  TIP3      10094           0.0000000000
     55181     10294  TIP3      H1             23.5098555458       24.4217818280      -30.1577220461  TIP3      10094           0.0000000000
     55182     10294  TIP3      H2             24.6157540503       25.3501920336      -29.8439459609  TIP3      10094           0.0000000000
     55183     10295  TIP3      OH2            27.7485339086       24.3143149076      -21.6230020483  TIP3      10095           0.0000000000
     55184     10295  TIP3      H1             28.5759339744       24.3226916446      -22.1454465334  TIP3      10095           0.0000000000
     55185     10295  TIP3      H2             28.1555513618       24.3353904938      -20.7275751800  TIP3      10095           0.0000000000
     55186     10296  TIP3      OH2            22.2873084024       21.3325729131      -25.0053534304  TIP3      10096           0.0000000000
     55187     10296  TIP3      H1             21.7332598642       20.6328744422      -24.5940626469  TIP3      10096           0.0000000000
     55188     10296  TIP3      H2             22.9064509072       20.7777245818      -25.4973018075  TIP3      10096           0.0000000000
     55189     10297  TIP3      OH2            27.1796639300       29.6231414408      -27.2614011882  TIP3      10097           0.0000000000
     55190     10297  TIP3      H1             26.4191113579       29.2363448606      -27.7457390969  TIP3      10097           0.0000000000
     55191     10297  TIP3      H2             26.7514592046       29.7933585080      -26.3798718404  TIP3      10097           0.0000000000
     55192     10298  TIP3      OH2            31.0317964753       22.2672689861      -29.0633405572  TIP3      10098           0.0000000000
     55193     10298  TIP3      H1             30.1797129318       22.4009622464      -29.5228336026  TIP3      10098           0.0000000000
     55194     10298  TIP3      H2             31.3802077807       23.1782829253      -29.0391516775  TIP3      10098           0.0000000000
     55195     10299  TIP3      OH2            31.5353930100       24.5645100980      -27.5857176972  TIP3      10099           0.0000000000
     55196     10299  TIP3      H1             32.4175235693       24.3387588834      -27.2359562126  TIP3      10099           0.0000000000
     55197     10299  TIP3      H2             31.8292257709       25.0642849366      -28.3873731550  TIP3      10099           0.0000000000
     55198     10300  TIP3      OH2            28.9114651870       31.0726239777      -28.9405857827  TIP3      10100           0.0000000000
     55199     10300  TIP3      H1             29.0975859204       31.8137316134      -28.3396086808  TIP3      10100           0.0000000000
     55200     10300  TIP3      H2             28.3811303323       30.5260342906      -28.3252707390  TIP3      10100           0.0000000000
     55201     10301  TIP3      OH2            36.2082753420       24.9630420674      -27.9347830359  TIP3      10101           0.0000000000
     55202     10301  TIP3      H1             36.0884521325       24.4814557496      -28.7726202129  TIP3      10101           0.0000000000
     55203     10301  TIP3      H2             36.3795522959       25.8542477260      -28.3314094465  TIP3      10101           0.0000000000
     55204     10302  TIP3      OH2            34.4875021092       32.7915252001      -27.5629030705  TIP3      10102           0.0000000000
     55205     10302  TIP3      H1             33.8280850736       32.0949146861      -27.4021407688  TIP3      10102           0.0000000000
     55206     10302  TIP3      H2             34.9924366985       32.4654012500      -28.3252467087  TIP3      10102           0.0000000000
     55207     10303  TIP3      OH2            24.6487910519       32.6031818772      -24.7325124308  TIP3      10103           0.0000000000
     55208     10303  TIP3      H1             24.7862640732       33.3662721514      -24.1618795398  TIP3      10103           0.0000000000
     55209     10303  TIP3      H2             23.6947043503       32.6335244809      -24.8776308316  TIP3      10103           0.0000000000
     55210     10304  TIP3      OH2            20.6701681468       27.4284003848      -29.7523332818  TIP3      10104           0.0000000000
     55211     10304  TIP3      H1             21.1382765258       27.9935547124      -29.0951854755  TIP3      10104           0.0000000000
     55212     10304  TIP3      H2             19.7369841659       27.5091131232      -29.4728842303  TIP3      10104           0.0000000000
     55213     10305  TIP3      OH2            25.7997202742       30.1216756499      -25.0320541318  TIP3      10105           0.0000000000
     55214     10305  TIP3      H1             25.6531469034       31.0896519623      -25.1275228227  TIP3      10105           0.0000000000
     55215     10305  TIP3      H2             25.2933892692       29.9438640458      -24.2366589373  TIP3      10105           0.0000000000
     55216     10306  TIP3      OH2            32.4691314611       31.2970885221      -29.5969243103  TIP3      10106           0.0000000000
     55217     10306  TIP3      H1             32.6180067905       30.9799114883      -28.6797315250  TIP3      10106           0.0000000000
     55218     10306  TIP3      H2             31.5634827935       30.9673524485      -29.6750780331  TIP3      10106           0.0000000000
     55219     10307  TIP3      OH2            36.9990490787       35.3310535120      -29.3213426623  TIP3      10107           0.0000000000
     55220     10307  TIP3      H1             37.6407551688       36.0422747402      -29.3636281579  TIP3      10107           0.0000000000
     55221     10307  TIP3      H2             36.1617546889       35.8161368395      -29.4588645020  TIP3      10107           0.0000000000
     55222     10308  TIP3      OH2            33.1722673417       30.0851224773      -27.3809363203  TIP3      10108           0.0000000000
     55223     10308  TIP3      H1             32.7027294067       29.2526308296      -27.5666119184  TIP3      10108           0.0000000000
     55224     10308  TIP3      H2             34.0912217036       29.8126808928      -27.5877660115  TIP3      10108           0.0000000000
     55225     10309  TIP3      OH2            26.4366791027       32.2950188424      -31.3265702229  TIP3      10109           0.0000000000
     55226     10309  TIP3      H1             26.5027304445       31.4527912732      -31.8024459332  TIP3      10109           0.0000000000
     55227     10309  TIP3      H2             25.8050687737       32.0569938210      -30.6263103834  TIP3      10109           0.0000000000
     55228     10310  TIP3      OH2            25.3344269156       32.0321737586      -28.5433652429  TIP3      10110           0.0000000000
     55229     10310  TIP3      H1             26.0562953776       31.4625202642      -28.2289665750  TIP3      10110           0.0000000000
     55230     10310  TIP3      H2             25.6027942028       32.8593673130      -28.1195650756  TIP3      10110           0.0000000000
     55231     10311  TIP3      OH2            21.9723229212       29.0359361159      -28.1790642537  TIP3      10111           0.0000000000
     55232     10311  TIP3      H1             21.1358115033       29.4729514756      -27.8890978363  TIP3      10111           0.0000000000
     55233     10311  TIP3      H2             22.4279205843       29.7606093915      -28.6314515826  TIP3      10111           0.0000000000
     55234     10312  TIP3      OH2            30.2746923166       21.4715975584      -26.5965444664  TIP3      10112           0.0000000000
     55235     10312  TIP3      H1             30.6064602828       21.7404346472      -27.4827147634  TIP3      10112           0.0000000000
     55236     10312  TIP3      H2             30.8819682669       21.9527526851      -25.9866956623  TIP3      10112           0.0000000000
     55237     10313  TIP3      OH2            27.9203061219       23.3245793511      -25.7278010083  TIP3      10113           0.0000000000
     55238     10313  TIP3      H1             28.8351606365       23.0165346504      -25.5826202638  TIP3      10113           0.0000000000
     55239     10313  TIP3      H2             27.4845871614       22.8239606268      -24.9886181240  TIP3      10113           0.0000000000
     55240     10314  TIP3      OH2            28.2428590188       20.0145349121      -25.4581782173  TIP3      10114           0.0000000000
     55241     10314  TIP3      H1             27.9313428818       20.5943028155      -24.7381729207  TIP3      10114           0.0000000000
     55242     10314  TIP3      H2             28.9940247013       20.5404597057      -25.8125277866  TIP3      10114           0.0000000000
     55243     10315  TIP3      OH2            23.9937478871       21.1467537530      -28.4183008700  TIP3      10115           0.0000000000
     55244     10315  TIP3      H1             23.7919704809       21.8648675050      -27.8100117098  TIP3      10115           0.0000000000
     55245     10315  TIP3      H2             24.9471169333       20.9976804068      -28.2460713747  TIP3      10115           0.0000000000
     55246     10316  TIP3      OH2            22.1765929597       31.5431288324      -29.5516848094  TIP3      10116           0.0000000000
     55247     10316  TIP3      H1             22.7490703872       31.9534571730      -28.8813828556  TIP3      10116           0.0000000000
     55248     10316  TIP3      H2             22.8325319946       31.1650660407      -30.1709903804  TIP3      10116           0.0000000000
     55249     10317  TIP3      OH2            20.5619151278       24.5074897485      -30.2385252594  TIP3      10117           0.0000000000
     55250     10317  TIP3      H1             20.9733525246       25.3475756157      -29.9556176648  TIP3      10117           0.0000000000
     55251     10317  TIP3      H2             19.7795908638       24.8038206706      -30.7294547199  TIP3      10117           0.0000000000
     55252     10318  TIP3      OH2            21.7071272953       19.0784846987      -21.4553791030  TIP3      10118           0.0000000000
     55253     10318  TIP3      H1             21.5440421517       19.1371621997      -22.4129406942  TIP3      10118           0.0000000000
     55254     10318  TIP3      H2             21.5400641830       18.1570979079      -21.2649816732  TIP3      10118           0.0000000000
     55255     10319  TIP3      OH2            20.6387378972       32.6850718512      -25.8113662841  TIP3      10119           0.0000000000
     55256     10319  TIP3      H1             20.0566810637       32.7868651066      -25.0493613190  TIP3      10119           0.0000000000
     55257     10319  TIP3      H2             20.1983505692       33.2752872019      -26.4657984926  TIP3      10119           0.0000000000
     55258     10320  TIP3      OH2            28.3995514067       34.2231209640      -31.0635771184  TIP3      10120           0.0000000000
     55259     10320  TIP3      H1             27.8976716618       33.3819817591      -31.0031256179  TIP3      10120           0.0000000000
     55260     10320  TIP3      H2             29.3036587227       33.9094756089      -31.2587183026  TIP3      10120           0.0000000000
     55261     10321  TIP3      OH2            32.8729395740       33.8150564911      -30.8345232197  TIP3      10121           0.0000000000
     55262     10321  TIP3      H1             33.3448734893       33.1439995192      -30.3071507779  TIP3      10121           0.0000000000
     55263     10321  TIP3      H2             33.3480554758       33.7511159524      -31.6885426946  TIP3      10121           0.0000000000
     55264     10322  TIP3      OH2            23.9192505911       29.9349365401      -31.1632665341  TIP3      10122           0.0000000000
     55265     10322  TIP3      H1             24.2452075280       29.4006178653      -30.4235872741  TIP3      10122           0.0000000000
     55266     10322  TIP3      H2             24.6810920003       29.8176390674      -31.7757956742  TIP3      10122           0.0000000000
     55267     10323  TIP3      OH2            29.2180757779       30.9893820412      -31.7989834239  TIP3      10123           0.0000000000
     55268     10323  TIP3      H1             28.9651733293       31.0181558861      -30.8616193318  TIP3      10123           0.0000000000
     55269     10323  TIP3      H2             29.3064978080       30.0148424033      -31.8853914589  TIP3      10123           0.0000000000
     55270     10324  TIP3      OH2            25.1297962200       28.0164986329      -28.5813394335  TIP3      10124           0.0000000000
     55271     10324  TIP3      H1             24.4482961058       27.4207400786      -28.2116638636  TIP3      10124           0.0000000000
     55272     10324  TIP3      H2             25.5759451359       27.4251246893      -29.2140201076  TIP3      10124           0.0000000000
     55273     10325  TIP3      OH2            26.2198495686       26.3402250352      -30.4940222976  TIP3      10125           0.0000000000
     55274     10325  TIP3      H1             25.8651477380       26.6760500952      -31.3349288660  TIP3      10125           0.0000000000
     55275     10325  TIP3      H2             27.1798312008       26.5616868962      -30.6001841042  TIP3      10125           0.0000000000
     55276     10326  TIP3      OH2            35.0727464271       28.3012662997      -31.0453433038  TIP3      10126           0.0000000000
     55277     10326  TIP3      H1             34.8957385414       27.8970449270      -31.9190096172  TIP3      10126           0.0000000000
     55278     10326  TIP3      H2             35.3315370693       29.2107794368      -31.2564363497  TIP3      10126           0.0000000000
     55279     10327  TIP3      OH2            19.4880086526       31.2076247849      -29.7456248130  TIP3      10127           0.0000000000
     55280     10327  TIP3      H1             20.4672369299       31.3131271238      -29.7614320840  TIP3      10127           0.0000000000
     55281     10327  TIP3      H2             19.3378210319       30.6447962378      -30.5379680431  TIP3      10127           0.0000000000
     55282     10328  TIP3      OH2            18.2958912166       37.0664310203      -24.9597032418  TIP3      10128           0.0000000000
     55283     10328  TIP3      H1             17.7070816293       36.8108849168      -25.6994769609  TIP3      10128           0.0000000000
     55284     10328  TIP3      H2             18.3469318216       36.2118784618      -24.5049648840  TIP3      10128           0.0000000000
     55285     10329  TIP3      OH2            19.2019858279       34.5654582250      -23.1724295689  TIP3      10129           0.0000000000
     55286     10329  TIP3      H1             18.9892564692       33.7677146147      -22.6545445712  TIP3      10129           0.0000000000
     55287     10329  TIP3      H2             19.4633263725       35.1691814094      -22.4650884733  TIP3      10129           0.0000000000
     55288     10330  TIP3      OH2            36.0090713664       29.4626720672      -27.4493831957  TIP3      10130           0.0000000000
     55289     10330  TIP3      H1             36.5476934908       30.1763031796      -27.0824665919  TIP3      10130           0.0000000000
     55290     10330  TIP3      H2             36.0744210559       28.7516460417      -26.7871815190  TIP3      10130           0.0000000000
     55291     10331  TIP3      OH2            36.2747376652       27.5378755993      -25.1461945965  TIP3      10131           0.0000000000
     55292     10331  TIP3      H1             35.4326039122       27.0999336559      -24.9005494378  TIP3      10131           0.0000000000
     55293     10331  TIP3      H2             36.5871985289       27.8464966074      -24.2789786417  TIP3      10131           0.0000000000
     55294     10332  TIP3      OH2            36.8593440555       27.2800102131      -29.0081626392  TIP3      10132           0.0000000000
     55295     10332  TIP3      H1             36.1568456579       27.3727229319      -29.6820087172  TIP3      10132           0.0000000000
     55296     10332  TIP3      H2             36.6653768819       28.0370444403      -28.4284087704  TIP3      10132           0.0000000000
     55297     10333  TIP3      OH2            35.7561172834       23.7055164246      -30.4145818055  TIP3      10133           0.0000000000
     55298     10333  TIP3      H1             35.0707571938       24.3851673461      -30.1648939194  TIP3      10133           0.0000000000
     55299     10333  TIP3      H2             35.2499860702       23.2593168835      -31.1182726826  TIP3      10133           0.0000000000
     55300     10334  TIP3      OH2            34.2382744425       25.9354546408      -24.1506067704  TIP3      10134           0.0000000000
     55301     10334  TIP3      H1             34.3407549501       25.2780302438      -24.8756295387  TIP3      10134           0.0000000000
     55302     10334  TIP3      H2             33.8163043348       25.4086067957      -23.4606627593  TIP3      10134           0.0000000000
     55303     10335  TIP3      OH2            19.8215965024       27.7008256391      -20.6479528436  TIP3      10135           0.0000000000
     55304     10335  TIP3      H1             19.1856868287       27.9699675058      -21.3223801737  TIP3      10135           0.0000000000
     55305     10335  TIP3      H2             19.8514096139       28.4422072886      -20.0251075222  TIP3      10135           0.0000000000
     55306     10336  TIP3      OH2            34.1860772209       21.5307630619      -31.4279269401  TIP3      10136           0.0000000000
     55307     10336  TIP3      H1             34.1358242294       21.5976532740      -30.4621857365  TIP3      10136           0.0000000000
     55308     10336  TIP3      H2             33.2341429186       21.5322227464      -31.6361642492  TIP3      10136           0.0000000000
     55309     10337  TIP3      OH2            33.9924858388       23.7331488987      -26.1713359574  TIP3      10137           0.0000000000
     55310     10337  TIP3      H1             34.1146524408       22.7663787032      -26.2644289869  TIP3      10137           0.0000000000
     55311     10337  TIP3      H2             34.6358991293       24.0319929086      -26.8371620226  TIP3      10137           0.0000000000
     55312     10338  TIP3      OH2            33.9508825029       23.8082321735      -21.0369985010  TIP3      10138           0.0000000000
     55313     10338  TIP3      H1             34.8882678270       24.0038145205      -20.8423496102  TIP3      10138           0.0000000000
     55314     10338  TIP3      H2             33.5599263767       23.7905126308      -20.1390283564  TIP3      10138           0.0000000000
     55315     10339  TIP3      OH2            34.1617268430       20.8346421124      -26.0093469044  TIP3      10139           0.0000000000
     55316     10339  TIP3      H1             34.4113535903       20.8677543564      -25.0774434963  TIP3      10139           0.0000000000
     55317     10339  TIP3      H2             33.9262999947       19.8904054421      -26.0892512860  TIP3      10139           0.0000000000
     55318     10340  TIP3      OH2            36.5190497292       20.7834052906      -29.3804259084  TIP3      10140           0.0000000000
     55319     10340  TIP3      H1             37.0335592118       20.2657693227      -30.0212553284  TIP3      10140           0.0000000000
     55320     10340  TIP3      H2             36.4952816203       21.6751768838      -29.7864580407  TIP3      10140           0.0000000000
     55321     10341  TIP3      OH2            18.7499891186       20.6959712744      -26.4483635433  TIP3      10141           0.0000000000
     55322     10341  TIP3      H1             17.7703268822       20.7182474911      -26.4749176370  TIP3      10141           0.0000000000
     55323     10341  TIP3      H2             18.9206066141       21.3085252071      -27.1965227906  TIP3      10141           0.0000000000
     55324     10342  TIP3      OH2            25.7214304198       34.8116068866      -21.2999822570  TIP3      10142           0.0000000000
     55325     10342  TIP3      H1             25.7333198195       33.8349930988      -21.3954457545  TIP3      10142           0.0000000000
     55326     10342  TIP3      H2             24.9269214654       34.9510978299      -20.7579448822  TIP3      10142           0.0000000000
     55327     10343  TIP3      OH2            34.0677199459       19.0375407080      -22.4430332127  TIP3      10143           0.0000000000
     55328     10343  TIP3      H1             33.3030698317       19.4619472531      -22.9010675702  TIP3      10143           0.0000000000
     55329     10343  TIP3      H2             33.6022857809       18.5742672498      -21.7317241545  TIP3      10143           0.0000000000
     55330     10344  TIP3      OH2            21.2808953874       18.9906870992      -24.2387085587  TIP3      10144           0.0000000000
     55331     10344  TIP3      H1             20.4677658902       18.9903840401      -24.7751376635  TIP3      10144           0.0000000000
     55332     10344  TIP3      H2             21.5839842822       18.0653411087      -24.3714673966  TIP3      10144           0.0000000000
     55333     10345  TIP3      OH2            19.9505038545       18.7510183519      -28.6084948686  TIP3      10145           0.0000000000
     55334     10345  TIP3      H1             20.3121551632       19.3471260307      -29.2876050482  TIP3      10145           0.0000000000
     55335     10345  TIP3      H2             19.5549286391       19.3791833118      -27.9794244793  TIP3      10145           0.0000000000
     55336     10346  TIP3      OH2            25.6084021524       18.6828096530      -23.9984165450  TIP3      10146           0.0000000000
     55337     10346  TIP3      H1             26.4377844159       18.6342768777      -24.4916581043  TIP3      10146           0.0000000000
     55338     10346  TIP3      H2             25.9001661649       18.8309886763      -23.0882184278  TIP3      10146           0.0000000000
     55339     10347  TIP3      OH2            31.2147769683       18.8969702303      -23.8734832771  TIP3      10147           0.0000000000
     55340     10347  TIP3      H1             30.7830776425       18.6356174748      -24.6960488181  TIP3      10147           0.0000000000
     55341     10347  TIP3      H2             30.9860694548       18.1668232144      -23.2675049494  TIP3      10147           0.0000000000
     55342     10348  TIP3      OH2            32.7836624533       18.7042901252      -26.9846321302  TIP3      10148           0.0000000000
     55343     10348  TIP3      H1             31.9337175302       19.1719364136      -27.0291643275  TIP3      10148           0.0000000000
     55344     10348  TIP3      H2             32.4735057259       17.8293625990      -26.6487971155  TIP3      10148           0.0000000000
     55345     10349  TIP3      OH2            19.7467040302       34.5620121877      -27.5114208922  TIP3      10149           0.0000000000
     55346     10349  TIP3      H1             18.9384237155       34.7507728956      -28.0264365460  TIP3      10149           0.0000000000
     55347     10349  TIP3      H2             20.2014876584       35.4101534916      -27.6449393482  TIP3      10149           0.0000000000
     55348     10350  TIP3      OH2            21.2879852040       20.8578049916      -29.9271924865  TIP3      10150           0.0000000000
     55349     10350  TIP3      H1             21.8912625136       20.2664025419      -30.4274219690  TIP3      10150           0.0000000000
     55350     10350  TIP3      H2             21.8364121643       21.0819173564      -29.1542351368  TIP3      10150           0.0000000000
     55351     10351  TIP3      OH2            26.8072097417       21.0967190738      -27.5727576498  TIP3      10151           0.0000000000
     55352     10351  TIP3      H1             27.2954149960       20.5585592915      -26.9183667232  TIP3      10151           0.0000000000
     55353     10351  TIP3      H2             27.0627707985       21.9889960397      -27.3068017580  TIP3      10151           0.0000000000
     55354     10352  TIP3      OH2            35.6697412093       35.4718638394      -26.7058990303  TIP3      10152           0.0000000000
     55355     10352  TIP3      H1             35.3448652231       34.5483868974      -26.7931222692  TIP3      10152           0.0000000000
     55356     10352  TIP3      H2             35.2076143361       35.8973785589      -27.4508438829  TIP3      10152           0.0000000000
     55357     10353  TIP3      OH2            21.7872280349       36.0390328583      -30.6322129512  TIP3      10153           0.0000000000
     55358     10353  TIP3      H1             21.0254804089       36.1811430227      -30.0399606299  TIP3      10153           0.0000000000
     55359     10353  TIP3      H2             22.2060743172       35.2822949718      -30.2023259772  TIP3      10153           0.0000000000
     55360     10354  TIP3      OH2            37.2119570409       24.8090823183      -25.3717953026  TIP3      10154           0.0000000000
     55361     10354  TIP3      H1             37.0179967072       25.7510354345      -25.2738196214  TIP3      10154           0.0000000000
     55362     10354  TIP3      H2             36.8543865169       24.6627459127      -26.2772327942  TIP3      10154           0.0000000000
     55363     10355  TIP3      OH2            36.6628922302       37.3455484305      -24.6765404150  TIP3      10155           0.0000000000
     55364     10355  TIP3      H1             36.1824926007       37.1405923623      -25.4994058158  TIP3      10155           0.0000000000
     55365     10355  TIP3      H2             36.5979113466       36.4574958916      -24.2812420109  TIP3      10155           0.0000000000
     55366     10356  TIP3      OH2            36.9707424127       34.7734012661      -23.0575915488  TIP3      10156           0.0000000000
     55367     10356  TIP3      H1             36.9235229891       34.0620584546      -22.3784216111  TIP3      10156           0.0000000000
     55368     10356  TIP3      H2             37.1305004521       35.5230455373      -22.4870498698  TIP3      10156           0.0000000000
     55369     10357  TIP3      OH2           -38.6528387255       27.8437235385      -20.7680070402  TIP3      10157           0.0000000000
     55370     10357  TIP3      H1            -38.3938013862       28.3695305121      -21.5311308604  TIP3      10157           0.0000000000
     55371     10357  TIP3      H2            -38.0656645085       28.2105795039      -20.0845099131  TIP3      10157           0.0000000000
     55372     10358  TIP3      OH2            36.7956915231       24.6981299960      -20.9272848206  TIP3      10158           0.0000000000
     55373     10358  TIP3      H1             37.3990184517       24.7585762670      -21.6759949924  TIP3      10158           0.0000000000
     55374     10358  TIP3      H2             37.1354279120       25.3901382216      -20.3343990608  TIP3      10158           0.0000000000
     55375     10359  TIP3      OH2            36.8573259778       21.1921050404      -26.6526530677  TIP3      10159           0.0000000000
     55376     10359  TIP3      H1             35.8817043681       21.2009166539      -26.6483107466  TIP3      10159           0.0000000000
     55377     10359  TIP3      H2             37.0641152714       21.1272532635      -27.6032187130  TIP3      10159           0.0000000000
     55378     10360  TIP3      OH2           -21.8418851410       36.8491228788      -28.9744272151  TIP3      10160           0.0000000000
     55379     10360  TIP3      H1            -22.5661890667       36.8221489933      -28.3223501311  TIP3      10160           0.0000000000
     55380     10360  TIP3      H2            -21.6557865959       37.8111747116      -28.9011813956  TIP3      10160           0.0000000000
     55381     10361  TIP3      OH2           -36.0049435626       37.2645819605      -23.9539619816  TIP3      10161           0.0000000000
     55382     10361  TIP3      H1            -36.3007680763       38.2009817295      -24.0155970732  TIP3      10161           0.0000000000
     55383     10361  TIP3      H2            -35.3215239627       37.3050757700      -23.2548447167  TIP3      10161           0.0000000000
     55384     10362  TIP3      OH2           -22.6412159798       36.7340314142      -22.5304501191  TIP3      10162           0.0000000000
     55385     10362  TIP3      H1            -21.7801324027       36.3763449709      -22.2983024735  TIP3      10162           0.0000000000
     55386     10362  TIP3      H2            -22.5374444535       37.6894178426      -22.3775214939  TIP3      10162           0.0000000000
     55387     10363  TIP3      OH2           -35.1868215300       36.6270836539      -26.5166113245  TIP3      10163           0.0000000000
     55388     10363  TIP3      H1            -35.8816756223       36.8127020879      -25.8569284300  TIP3      10163           0.0000000000
     55389     10363  TIP3      H2            -34.3803710211       36.9050514657      -26.0474818996  TIP3      10163           0.0000000000
     55390     10364  TIP3      OH2           -36.4766069701       37.2733003034      -28.8359223782  TIP3      10164           0.0000000000
     55391     10364  TIP3      H1            -35.8048511515       37.9559957770      -29.0129399133  TIP3      10164           0.0000000000
     55392     10364  TIP3      H2            -36.2741587764       37.0763558288      -27.8973717954  TIP3      10164           0.0000000000
     55393     10365  TIP3      OH2           -23.8511523481       37.3956261739      -27.1229536006  TIP3      10165           0.0000000000
     55394     10365  TIP3      H1            -24.6405466534       37.1909940508      -27.6445904187  TIP3      10165           0.0000000000
     55395     10365  TIP3      H2            -24.0009462044       36.7739958918      -26.3834391505  TIP3      10165           0.0000000000
     55396     10366  TIP3      OH2           -11.8507415262       36.3036179397      -22.1315818395  TIP3      10166           0.0000000000
     55397     10366  TIP3      H1            -11.1889989375       36.8867908442      -21.7089254162  TIP3      10166           0.0000000000
     55398     10366  TIP3      H2            -12.6656262917       36.3472364917      -21.5753245197  TIP3      10166           0.0000000000
     55399     10367  TIP3      OH2            -3.2609117834       36.8189630115      -28.8016006005  TIP3      10167           0.0000000000
     55400     10367  TIP3      H1             -4.0286716083       36.9802158646      -28.2161917344  TIP3      10167           0.0000000000
     55401     10367  TIP3      H2             -3.0126041394       37.7602939847      -28.9501482459  TIP3      10167           0.0000000000
     55402     10368  TIP3      OH2            -3.7141046727       36.3655577914      -22.1334934190  TIP3      10168           0.0000000000
     55403     10368  TIP3      H1             -3.3163452877       37.2398119953      -21.9450237212  TIP3      10168           0.0000000000
     55404     10368  TIP3      H2             -4.6545960335       36.6423549716      -22.0806589901  TIP3      10168           0.0000000000
     55405     10369  TIP3      OH2           -16.7650984203       37.1375551010      -25.4095679616  TIP3      10169           0.0000000000
     55406     10369  TIP3      H1            -17.6986546862       36.8405927686      -25.4013405080  TIP3      10169           0.0000000000
     55407     10369  TIP3      H2            -16.3497910838       36.4446004227      -24.8718901853  TIP3      10169           0.0000000000
     55408     10370  TIP3      OH2           -17.6721266585       37.0236333187      -28.4869974254  TIP3      10170           0.0000000000
     55409     10370  TIP3      H1            -17.0248162767       37.7397133613      -28.5859256979  TIP3      10170           0.0000000000
     55410     10370  TIP3      H2            -18.2354404362       37.4910500785      -27.8459040332  TIP3      10170           0.0000000000
     55411     10371  TIP3      OH2           -13.0607356337       37.5222013447      -24.3982767784  TIP3      10171           0.0000000000
     55412     10371  TIP3      H1            -12.3595434247       38.0854422548      -24.7885091511  TIP3      10171           0.0000000000
     55413     10371  TIP3      H2            -12.6216803993       37.2206206275      -23.5819795366  TIP3      10171           0.0000000000
     55414     10372  TIP3      OH2            -6.0811336662       37.3459583952      -22.7413110846  TIP3      10172           0.0000000000
     55415     10372  TIP3      H1             -6.6933643556       37.6149353711      -23.4464380853  TIP3      10172           0.0000000000
     55416     10372  TIP3      H2             -6.6238736986       36.7459226113      -22.1930834139  TIP3      10172           0.0000000000
     55417     10373  TIP3      OH2            -5.5362629500       37.4742416993      -27.2800269425  TIP3      10173           0.0000000000
     55418     10373  TIP3      H1             -6.2670533849       37.1564768354      -27.8386630249  TIP3      10173           0.0000000000
     55419     10373  TIP3      H2             -5.4843323120       36.7559879729      -26.6098119381  TIP3      10173           0.0000000000
     55420     10374  TIP3      OH2             8.2276075551       37.2691048310      -21.9782685181  TIP3      10174           0.0000000000
     55421     10374  TIP3      H1              8.5084915606       36.6295918263      -22.6598779204  TIP3      10174           0.0000000000
     55422     10374  TIP3      H2              7.9631620046       36.6804520376      -21.2581455293  TIP3      10174           0.0000000000
     55423     10375  TIP3      OH2            16.0192538186       36.8339648713      -29.1966816032  TIP3      10175           0.0000000000
     55424     10375  TIP3      H1             15.2764564755       36.7822615905      -28.5743493739  TIP3      10175           0.0000000000
     55425     10375  TIP3      H2             16.3191020654       37.7522530010      -29.0012512047  TIP3      10175           0.0000000000
     55426     10376  TIP3      OH2             6.4973296038       36.4750283915      -19.7248630892  TIP3      10176           0.0000000000
     55427     10376  TIP3      H1              5.7300065540       36.2027812528      -20.2545222903  TIP3      10176           0.0000000000
     55428     10376  TIP3      H2              6.0571596970       37.1064065997      -19.1433502473  TIP3      10176           0.0000000000
     55429     10377  TIP3      OH2             0.6291648070       37.6525991396      -21.0571875486  TIP3      10177           0.0000000000
     55430     10377  TIP3      H1              0.7452517581       37.8264694345      -22.0084186181  TIP3      10177           0.0000000000
     55431     10377  TIP3      H2              1.1105656808       36.8234365780      -20.9721301273  TIP3      10177           0.0000000000
     55432     10378  TIP3      OH2             1.2739025216       37.6274546883      -23.7266164661  TIP3      10178           0.0000000000
     55433     10378  TIP3      H1              0.5368165241       37.3807535549      -24.3319610828  TIP3      10178           0.0000000000
     55434     10378  TIP3      H2              2.0218030478       37.7418534772      -24.3257334400  TIP3      10178           0.0000000000
     55435     10379  TIP3      OH2             0.2136137701       37.9155207697      -28.5484922194  TIP3      10179           0.0000000000
     55436     10379  TIP3      H1              0.2219980740       38.5297693329      -29.2992343708  TIP3      10179           0.0000000000
     55437     10379  TIP3      H2              0.0000423289       38.5055363857      -27.8060697992  TIP3      10179           0.0000000000
     55438     10380  TIP3      OH2             7.4064432125       37.3467638001      -24.5970797660  TIP3      10180           0.0000000000
     55439     10380  TIP3      H1              7.5164039597       38.2327288961      -25.0244156261  TIP3      10180           0.0000000000
     55440     10380  TIP3      H2              7.2698767999       37.6076872511      -23.6795500777  TIP3      10180           0.0000000000
     55441     10381  TIP3      OH2            14.3426800413       37.6890172393      -27.1181601698  TIP3      10181           0.0000000000
     55442     10381  TIP3      H1             13.7823890363       38.0209071492      -27.8381861103  TIP3      10181           0.0000000000
     55443     10381  TIP3      H2             13.7436568091       36.9908874764      -26.7653981651  TIP3      10181           0.0000000000
     55444     10382  TIP3      OH2            26.3224688606       38.0459638174      -22.0387927165  TIP3      10182           0.0000000000
     55445     10382  TIP3      H1             26.6990952267       37.1523648292      -22.0737181969  TIP3      10182           0.0000000000
     55446     10382  TIP3      H2             25.5477764677       37.8774608847      -21.4664164768  TIP3      10182           0.0000000000
     55447     10383  TIP3      OH2            34.6728421796       36.8359410704      -29.0999618384  TIP3      10183           0.0000000000
     55448     10383  TIP3      H1             33.9320308657       36.6488826335      -28.4850313695  TIP3      10183           0.0000000000
     55449     10383  TIP3      H2             34.8679917302       37.7513248556      -28.8169108169  TIP3      10183           0.0000000000
     55450     10384  TIP3      OH2            24.0744063894       37.6616115845      -20.2713228033  TIP3      10184           0.0000000000
     55451     10384  TIP3      H1             23.2409325201       37.4649636416      -20.7442584271  TIP3      10184           0.0000000000
     55452     10384  TIP3      H2             23.6865822687       38.0017235546      -19.4600658845  TIP3      10184           0.0000000000
     55453     10385  TIP3      OH2            20.6787633999       37.0941400867      -23.5534108654  TIP3      10185           0.0000000000
     55454     10385  TIP3      H1             19.8286943954       37.1502177190      -24.0320931945  TIP3      10185           0.0000000000
     55455     10385  TIP3      H2             21.1610964007       36.4561630342      -24.1136683480  TIP3      10185           0.0000000000
     55456     10386  TIP3      OH2            20.1233931025       37.0118368594      -28.6560474804  TIP3      10186           0.0000000000
     55457     10386  TIP3      H1             20.6303974817       37.7503574762      -29.0394454294  TIP3      10186           0.0000000000
     55458     10386  TIP3      H2             19.7570508235       37.5674077605      -27.9461221634  TIP3      10186           0.0000000000
     55459     10387  TIP3      OH2            32.8835647937       37.1073084021      -27.0956158204  TIP3      10187           0.0000000000
     55460     10387  TIP3      H1             32.3053969168       37.7827607541      -27.4709984604  TIP3      10187           0.0000000000
     55461     10387  TIP3      H2             32.2771106608       36.6074803177      -26.5316236158  TIP3      10187           0.0000000000
     55462     10388  SOD       SOD            33.9159214377      -19.3780283065       25.2929083427  IONS      1               1.0000000000
     55463     10389  SOD       SOD            27.3940987665       25.6262211111      -25.3125320095  IONS      2               1.0000000000
     55464     10390  SOD       SOD            32.1129244106      -19.9086321480       49.6108652918  IONS      3               1.0000000000
     55465     10391  SOD       SOD            35.3291642060       31.2247775235      -50.1774736206  IONS      4               1.0000000000
     55466     10392  SOD       SOD            23.4486600676       -6.9102624047       47.1420732832  IONS      5               1.0000000000
     55467     10393  SOD       SOD           -11.2596382312      -12.7184499659      -35.5234160338  IONS      6               1.0000000000
     55468     10394  SOD       SOD           -22.1224247788      -26.4791928706      -29.7752144433  IONS      7               1.0000000000
     55469     10395  SOD       SOD            -1.0919953962       -6.4904922526       37.9245306599  IONS      8               1.0000000000
     55470     10396  SOD       SOD           -27.7170015989      -11.3350831499      -23.3760255596  IONS      9               1.0000000000
     55471     10397  SOD       SOD             8.6538839362      -31.2254632592       22.4650634667  IONS      10              1.0000000000
     55472     10398  SOD       SOD           -14.8139580725      -12.9099624905       42.9061710238  IONS      11              1.0000000000
     55473     10399  SOD       SOD           -32.9220703209       11.8826414208       41.9365453990  IONS      12              1.0000000000
     55474     10400  SOD       SOD           -13.7152153790       17.3702154920      -49.6918882227  IONS      13              1.0000000000
     55475     10401  SOD       SOD           -15.2807046466       -6.1088865451       38.1713808574  IONS      14              1.0000000000
     55476     10402  SOD       SOD            28.1671720890       12.5598964215       43.6962414357  IONS      15              1.0000000000
     55477     10403  SOD       SOD           -19.3659256815       18.5824659707       35.6457483470  IONS      16              1.0000000000
     55478     10404  SOD       SOD           -28.9326258603      -11.7066596014      -35.0952113576  IONS      17              1.0000000000
     55479     10405  SOD       SOD            20.8097967315        2.8199847935       43.8979023846  IONS      18              1.0000000000
     55480     10406  SOD       SOD            32.5238380300       -9.9892975597       46.4854397349  IONS      19              1.0000000000
     55481     10407  SOD       SOD             1.8450302761      -16.8220862385      -44.0513914492  IONS      20              1.0000000000
     55482     10408  SOD       SOD           -35.0189516242       31.9218700405      -37.0787837884  IONS      21              1.0000000000
     55483     10409  SOD       SOD            10.9113033302       15.6889472527       30.8892994505  IONS      22              1.0000000000
     55484     10410  SOD       SOD           -10.3814694039       22.5540241417      -34.6924274969  IONS      23              1.0000000000
     55485     10411  SOD       SOD           -34.5609760749        8.5986849618      -42.5914986760  IONS      24              1.0000000000
     55486     10412  SOD       SOD            -7.3952761197      -17.1426711560      -34.4968561619  IONS      25              1.0000000000
     55487     10413  SOD       SOD           -29.5955730055       34.5245414360       43.8112804612  IONS      26              1.0000000000
     55488     10414  CLA       CLA            21.7674421829       -2.1580145593      -34.5966574554  IONS      27             -1.0000000000
     55489     10415  CLA       CLA            11.3002140347       10.5282715262      -48.7953203776  IONS      28             -1.0000000000
     55490     10416  CLA       CLA           -33.8501076708        8.2903532274      -30.8647821216  IONS      29             -1.0000000000
     55491     10417  CLA       CLA            19.8603827330       -7.4449068184       31.2722025059  IONS      30             -1.0000000000
     55492     10418  CLA       CLA             7.4769037462       28.0770171471       48.9904835858  IONS      31             -1.0000000000
     55493     10419  CLA       CLA             8.6260526232      -10.3626051170       47.3150178978  IONS      32             -1.0000000000
     55494     10420  CLA       CLA             7.5163051713      -25.8334690217       32.0026575449  IONS      33             -1.0000000000
     55495     10421  CLA       CLA            23.9194841299       18.7266701310       40.2241165751  IONS      34             -1.0000000000
     55496     10422  CLA       CLA           -23.7051735568      -31.5924680216      -49.0911347447  IONS      35             -1.0000000000
     55497     10423  CLA       CLA           -11.4903889396      -32.4013615525       35.0935673468  IONS      36             -1.0000000000
     55498     10424  CLA       CLA           -13.1835697118      -17.1401379649       27.2375465789  IONS      37             -1.0000000000
     55499     10425  CLA       CLA            14.4587614393      -23.9645144907      -32.6684896396  IONS      38             -1.0000000000
     55500     10426  CLA       CLA            34.6208481547      -31.2847974976      -27.9599657813  IONS      39             -1.0000000000
     55501     10427  CLA       CLA            25.9227342781        1.9830600990       21.5947511418  IONS      40             -1.0000000000
     55502     10428  CLA       CLA            10.1853748237       34.3641920676      -26.0844736019  IONS      41             -1.0000000000
     55503     10429  CLA       CLA            13.8570213358       -6.5666325912       32.1581107714  IONS      42             -1.0000000000
     55504     10430  CLA       CLA           -30.3469737460      -31.7831260757      -34.3250362635  IONS      43             -1.0000000000
     55505     10431  CLA       CLA            -4.0985150588      -13.3800275423      -29.1744378835  IONS      44             -1.0000000000
     55506     10432  CLA       CLA            33.2735722178       25.3353796156      -29.8615219058  IONS      45             -1.0000000000
     55507     10433  CLA       CLA           -27.4120851340      -30.7304313560       47.3358505854  IONS      46             -1.0000000000
     55508     10434  CLA       CLA             2.6086527416      -30.7978739452      -34.2392363801  IONS      47             -1.0000000000
     55509     10435  CLA       CLA             6.9849321466        6.1150331711      -31.3744451880  IONS      48             -1.0000000000
     55510     10436  CLA       CLA           -19.3903373403       23.5396765240      -30.9074213572  IONS      49             -1.0000000000
     55511     10437  CLA       CLA             7.7294363656      -10.2567818484       37.8395114622  IONS      50             -1.0000000000
     55512     10438  CLA       CLA           -25.6794882974       -5.5279422093       29.7331407171  IONS      51             -1.0000000000
     55513     10439  CLA       CLA           -31.8322723773      -15.4148206284      -26.2161524176  IONS      52             -1.0000000000
