* GENERATED BY CHARMM-GUI (HTTP://WWW.CHARMM-GUI.ORG) V3.7 ON JUL, 11. 2024. JOB
* GENERATES LIPID PACKING USING BIG SPHERES
*  DATE:     7/11/24      0:27:16      CREATED BY USER: apache
*
       200  EXT
         1         1  CHL1      POLO          -11.9582908275        7.4938571982       12.0038461588  HEAD      1               0.0000000000
         2         2  CHL1      POLO            1.6894015874        7.5941899808       12.1369509237  HEAD      2               0.0000000000
         3         3  CHL1      POLO            8.3135856776      -30.9469436285       12.1167184606  HEAD      3               0.0000000000
         4         4  CHL1      POLO           35.8870528328       37.9408773891       12.0323634112  HEAD      4               0.0000000000
         5         5  CHL1      POLO          -19.3904584153      -13.5410912869       11.8956817675  HEAD      5               0.0000000000
         6         6  CHL1      POLO          -12.3935189714       -9.3611715658       11.9017294990  HEAD      6               0.0000000000
         7         7  CHL1      POLO           22.4716274092        3.0942879817       11.9170887199  HEAD      7               0.0000000000
         8         8  CHL1      POLO          -32.6114194462       12.3557900759       12.1901885354  HEAD      8               0.0000000000
         9         9  CHL1      POLO          -26.2185832835      -35.8331959464       11.8080573855  HEAD      9               0.0000000000
        10        10  CHL1      POLO            2.0672547939       24.6854409290       12.0337543589  HEAD      10              0.0000000000
        11        11  CHL1      POLO           35.4403250815      -22.4344837036       11.9435742925  HEAD      11              0.0000000000
        12        12  CHL1      POLO           15.2656190082      -35.1926518983       12.0162476056  HEAD      12              0.0000000000
        13        13  CHL1      POLO           22.0274671361       -5.4403325758       11.9915556402  HEAD      13              0.0000000000
        14        14  CHL1      POLO          -12.3976062252      -35.3634753497       11.8957045601  HEAD      14              0.0000000000
        15        15  CHL1      POLO          -25.3751162765       16.1493968179       12.0419216255  HEAD      15              0.0000000000
        16        16  CHL1      POLO          -11.7016055990       24.7227467047       12.0433316552  HEAD      16              0.0000000000
        17        17  CHL1      POLO           15.4422808608       32.9447217495       12.0100742098  HEAD      17              0.0000000000
        18        18  CHL1      POLO           -5.5960071642      -31.0401479829       12.0226908727  HEAD      18              0.0000000000
        19        19  CHL1      POLO           21.9873088446      -13.7626979805       12.0437681684  HEAD      19              0.0000000000
        20        20  CHL1      POLO          -19.5940157833      -31.1661569508       12.1749337476  HEAD      20              0.0000000000
        21        21  DOPC      POLO            1.5161690276      -35.1413248182       11.9224980646  HEAD      21              0.0000000000
        22        22  DOPC      POLO           28.7268936641      -18.1437178014       12.0640048780  HEAD      22              0.0000000000
        23        23  DOPC      POLO          -18.8793062690       28.6798877765       12.0705973873  HEAD      23              0.0000000000
        24        24  DOPC      POLO          -19.1853269331       36.8983708606       12.0159764166  HEAD      24              0.0000000000
        25        25  DOPC      POLO           29.4010197582       33.0758069028       11.8866225837  HEAD      25              0.0000000000
        26        26  DOPC      POLO           21.9698646110      -31.1296202792       11.9492831693  HEAD      26              0.0000000000
        27        27  DOPC      POLO          -25.7235144473       24.3393611713       11.9101132034  HEAD      27              0.0000000000
        28        28  DOPC      POLO           -5.4810172709      -13.7864960037       11.9735042330  HEAD      28              0.0000000000
        29        29  DOPC      POLO           35.7891517985      -13.9355987153       11.8602926933  HEAD      29              0.0000000000
        30        30  DOPC      POLO          -12.3999504058      -17.9167987167       12.0047892897  HEAD      30              0.0000000000
        31        31  DOPC      POLO            1.7702412938       16.1413130767       11.8481770952  HEAD      31              0.0000000000
        32        32  DOPC      POLO           21.8116762379      -22.2880690489       12.0608780312  HEAD      32              0.0000000000
        33        33  DOPC      POLO            8.2954533482       -5.2032259898       12.0026187802  HEAD      33              0.0000000000
        34        34  DOPC      POLO          -26.4902248481      -26.8270327042       11.9510801034  HEAD      34              0.0000000000
        35        35  DOPC      POLO           15.0097724715       -9.7182193979       12.0684174413  HEAD      35              0.0000000000
        36        36  DOPC      POLO           28.5438810480      -26.5607376771       11.9147172286  HEAD      36              0.0000000000
        37        37  DOPC      POLO          -19.2492797147       -5.1611034583       11.9265354678  HEAD      37              0.0000000000
        38        38  DOPC      POLO          -34.2217128353      -25.8807570760       11.9929839725  HEAD      38              0.0000000000
        39        39  DOPC      POLO           29.1918507191       -1.1350143631       11.9168985697  HEAD      39              0.0000000000
        40        40  DOPC      POLO          -33.9698091719      -10.6203386518       12.0128895995  HEAD      40              0.0000000000
        41        41  DOPC      POLO           15.7435836310       24.4833743996       12.0381468994  HEAD      41              0.0000000000
        42        42  DOPC      POLO            1.5518925575       33.2344606058       11.9588043192  HEAD      42              0.0000000000
        43        43  DOPC      POLO          -19.3553122669      -22.4357104016       12.0129041962  HEAD      43              0.0000000000
        44        44  DOPC      POLO          -12.2432709293       -1.0707340485       11.9074285839  HEAD      44              0.0000000000
        45        45  DOPC      POLO            1.4704279164       -9.6079524172       12.0683927064  HEAD      45              0.0000000000
        46        46  DOPC      POLO          -25.9834004629       -0.4319433967       11.9578656700  HEAD      46              0.0000000000
        47        47  DOPC      POLO            1.4244154809      -26.5302292041       11.9793343432  HEAD      47              0.0000000000
        48        48  DOPC      POLO          -11.7911421885       16.1564561912       11.9468380087  HEAD      48              0.0000000000
        49        49  DOPC      POLO           22.6697070948       20.2502814860       11.9198600797  HEAD      49              0.0000000000
        50        50  DOPC      POLO           22.4673591059       11.5862657820       11.9720525930  HEAD      50              0.0000000000
        51        51  DOPE      POLO          -25.6646911771        7.9025535245       11.9872643685  HEAD      51              0.0000000000
        52        52  DOPE      POLO           22.5556255844       28.6753460115       12.0043026004  HEAD      52              0.0000000000
        53        53  DOPE      POLO           36.5168041446       19.9912462117       11.9076876240  HEAD      53              0.0000000000
        54        54  DOPE      POLO           29.5567365371       24.4722442506       11.9792712293  HEAD      54              0.0000000000
        55        55  DOPE      POLO           35.6104817403      -30.6228682527       11.9930837811  HEAD      55              0.0000000000
        56        56  DOPE      POLO          -19.0629099781        3.3644915261       11.9669765578  HEAD      56              0.0000000000
        57        57  DOPE      POLO          -26.1284627967      -17.9573678503       11.8614298654  HEAD      57              0.0000000000
        58        58  DOPE      POLO          -18.6158056224       11.8241110476       12.0638863658  HEAD      58              0.0000000000
        59        59  DOPE      POLO           29.4209723808        7.4489600942       12.0699505177  HEAD      59              0.0000000000
        60        60  DOPE      POLO           15.8147499272       16.1414447161       11.9451542381  HEAD      60              0.0000000000
        61        61  DOPE      POLO          -33.5692902217       -2.9858726932       12.0501349258  HEAD      61              0.0000000000
        62        62  DOPE      POLO           -4.9071040329       28.7812980231       12.1061185482  HEAD      62              0.0000000000
        63        63  DOPE      POLO            1.3667072374       -1.0500589736       11.9645075350  HEAD      63              0.0000000000
        64        64  DOPE      POLO          -32.7538465974       27.7924137845       11.8721119925  HEAD      64              0.0000000000
        65        65  DOPE      POLO           36.3913735120       29.1190393254       12.0186235958  HEAD      65              0.0000000000
        66        66  DOPE      POLO           -5.3053878464       37.2460182097       12.0789041609  HEAD      66              0.0000000000
        67        67  DOPE      POLO          -26.1547531330       -9.0800016796       11.9903653736  HEAD      67              0.0000000000
        68        68  DOPE      POLO          -33.4959325904       35.3566281259       11.9802562925  HEAD      68              0.0000000000
        69        69  DOPE      POLO          -18.7067123910       20.3246062378       11.9365233066  HEAD      69              0.0000000000
        70        70  DOPE      POLO           -5.1331876558       11.8105379085       12.0910853988  HEAD      70              0.0000000000
        71        71  DOPE      POLO            8.1900973526      -13.9765895701       12.0368388410  HEAD      71              0.0000000000
        72        72  DOPE      POLO          -12.4577510441      -26.6712162919       11.9577293761  HEAD      72              0.0000000000
        73        73  DOPE      POLO          -11.9073151451       32.8464838321       11.9930270885  HEAD      73              0.0000000000
        74        74  DOPE      POLO            8.9097255791       20.2557343798       11.9777288842  HEAD      74              0.0000000000
        75        75  DOPE      POLO           35.8109112619       -5.5959601211       12.1600746401  HEAD      75              0.0000000000
        76        76  DOPE      POLO           22.2957590674       37.2513991794       11.9041617887  HEAD      76              0.0000000000
        77        77  DOPE      POLO           36.2023025361        2.8093093080       12.0015450247  HEAD      77              0.0000000000
        78        78  DOPE      POLO            8.4712721351       37.2045126013       11.9510455382  HEAD      78              0.0000000000
        79        79  DOPE      POLO            8.3536496786        3.2267690922       12.1321655572  HEAD      79              0.0000000000
        80        80  DOPE      POLO           36.4381184103       11.1768312486       11.9850311228  HEAD      80              0.0000000000
        81        81  23SM      POLO          -32.5675763194       20.0390461738       11.9860035794  HEAD      81              0.0000000000
        82        82  23SM      POLO            8.6507562370       28.8698126222       11.9647937581  HEAD      82              0.0000000000
        83        83  23SM      POLO           15.0452672980      -17.9976846735       11.9795169146  HEAD      83              0.0000000000
        84        84  23SM      POLO            8.4356829823      -22.5590528203       11.9570902739  HEAD      84              0.0000000000
        85        85  23SM      POLO           -5.4713185801      -22.3117659554       12.0097862550  HEAD      85              0.0000000000
        86        86  23SM      POLO           -4.9660864877       20.4844827286       11.8596755809  HEAD      86              0.0000000000
        87        87  23SM      POLO           15.4485630917        7.3615793429       12.0203488974  HEAD      87              0.0000000000
        88        88  23SM      POLO           -5.4752160086       -5.4163749438       11.8345009574  HEAD      88              0.0000000000
        89        89  23SM      POLO          -34.0037299002      -18.2909309197       12.0762474683  HEAD      89              0.0000000000
        90        90  23SM      POLO           15.2974345479       -1.0523848717       11.9787293149  HEAD      90              0.0000000000
        91        91  23SM      POLO            8.7335360828       11.9715895987       11.9548294538  HEAD      91              0.0000000000
        92        92  23SM      POLO          -33.0504860921        4.6907980214       12.1170901136  HEAD      92              0.0000000000
        93        93  23SM      POLO           15.2356027732      -26.7354543725       11.8956515419  HEAD      93              0.0000000000
        94        94  23SM      POLO          -25.9097927584       32.7243639598       11.9504571146  HEAD      94              0.0000000000
        95        95  23SM      POLO           28.7257353880       -9.5710185408       11.9417213851  HEAD      95              0.0000000000
        96        96  23SM      POLO           29.5362853623       15.8221091894       11.9739459106  HEAD      96              0.0000000000
        97        97  23SM      POLO            1.4171602735      -18.2533758653       12.0077532280  HEAD      97              0.0000000000
        98        98  23SM      POLO           -5.2587147596        3.3113300889       12.0112950763  HEAD      98              0.0000000000
        99        99  23SM      POLO           28.9697857349      -34.9542630148       12.0250182145  HEAD      99              0.0000000000
       100       100  23SM      POLO          -33.8758423599      -33.5786281394       12.0436025646  HEAD      100             0.0000000000
       101       101  CHL1      POLO          -36.7920113044       27.4918909208      -11.9582183965  HEAD      101             0.0000000000
       102       102  CHL1      POLO           -4.3007292986       26.1666822239      -11.9752854645  HEAD      102             0.0000000000
       103       103  CHL1      POLO           29.8454255663      -27.4405482580      -11.9625247478  HEAD      103             0.0000000000
       104       104  CHL1      POLO           34.6583243028       -6.4009081658      -11.9873588598  HEAD      104             0.0000000000
       105       105  CHL1      POLO           -0.2528645723       32.5946089185      -11.9293516025  HEAD      105             0.0000000000
       106       106  CHL1      POLO          -29.8002765590      -13.8696772093      -12.0314931554  HEAD      106             0.0000000000
       107       107  CHL1      POLO            4.6875227258       -0.4382261300      -12.1077132419  HEAD      107             0.0000000000
       108       108  CHL1      POLO          -11.9453728721       -0.4294668333      -11.9350599677  HEAD      108             0.0000000000
       109       109  CHL1      POLO           -2.8579336962       14.1336214588      -12.0024873767  HEAD      109             0.0000000000
       110       110  CHL1      POLO          -12.3376943088       26.9318168765      -11.9256695193  HEAD      110             0.0000000000
       111       111  CHL1      POLO           12.9079553526       -0.3463283873      -12.0007170872  HEAD      111             0.0000000000
       112       112  CHL1      POLO            5.5287976557       14.2516804132      -12.0946207613  HEAD      112             0.0000000000
       113       113  CHL1      POLO           30.4990631169      -13.2888198341      -11.9682767315  HEAD      113             0.0000000000
       114       114  CHL1      POLO           18.5334757769       21.3710713676      -12.0446586034  HEAD      114             0.0000000000
       115       115  CHL1      POLO          -12.3451516724       13.3092356220      -11.9223600249  HEAD      115             0.0000000000
       116       116  CHL1      POLO           33.2663233115      -34.6357149813      -12.0193940020  HEAD      116             0.0000000000
       117       117  CHL1      POLO          -17.7819500224      -20.9461718024      -11.9142393864  HEAD      117             0.0000000000
       118       118  CHL1      POLO           16.8797395667      -33.7183941545      -11.9257001569  HEAD      118             0.0000000000
       119       119  CHL1      POLO          -29.1104079746       13.3872384408      -11.9631449961  HEAD      119             0.0000000000
       120       120  CHL1      POLO          -34.2199297612      -20.7667652424      -11.9588504978  HEAD      120             0.0000000000
       121       121  DOPC      POLO          -15.9885993157       34.2192952634      -11.8947457192  HEAD      121             0.0000000000
       122       122  DOPC      POLO           -9.5787477389      -21.5766737083      -11.9848898976  HEAD      122             0.0000000000
       123       123  DOPC      POLO           30.5806755805       14.0444813030      -11.8479508036  HEAD      123             0.0000000000
       124       124  DOPC      POLO           26.1561083763       -6.3497019391      -11.9514677162  HEAD      124             0.0000000000
       125       125  DOPC      POLO          -19.2986146867      -35.4056275574      -11.9990403799  HEAD      125             0.0000000000
       126       126  DOPC      POLO          -16.5892141021       20.0936497382      -11.8316187300  HEAD      126             0.0000000000
       127       127  DOPC      POLO           25.0815561066      -34.0925534009      -11.9357855131  HEAD      127             0.0000000000
       128       128  DOPC      POLO           21.9981536471       14.1743446200      -12.0213287195  HEAD      128             0.0000000000
       129       129  DOPC      POLO           26.6596744705       20.8588492775      -11.8575386570  HEAD      129             0.0000000000
       130       130  DOPC      POLO          -23.9798172376       34.4307332218      -11.9769357508  HEAD      130             0.0000000000
       131       131  DOPC      POLO           -3.2040319474      -36.3359689890      -12.0860190906  HEAD      131             0.0000000000
       132       132  DOPC      POLO            0.0275740908       -7.5214509399      -12.0711512937  HEAD      132             0.0000000000
       133       133  DOPC      POLO           20.1991560718       35.5994795106      -12.0465667474  HEAD      133             0.0000000000
       134       134  DOPC      POLO           10.2462839958       21.7122589536      -11.9908978424  HEAD      134             0.0000000000
       135       135  DOPC      POLO          -30.7510980305      -27.9302099670      -11.9802569185  HEAD      135             0.0000000000
       136       136  DOPC      POLO           -8.4025769042       19.8152914984      -11.9704412548  HEAD      136             0.0000000000
       137       137  DOPC      POLO          -14.3723431565      -28.2630105928      -11.9733811122  HEAD      137             0.0000000000
       138       138  DOPC      POLO          -16.8937355852       -7.2360739990      -12.1366677931  HEAD      138             0.0000000000
       139       139  DOPC      POLO          -27.2532662902      -35.1139315689      -12.0357187968  HEAD      139             0.0000000000
       140       140  DOPC      POLO           21.6437349997      -26.8057796109      -12.1190808395  HEAD      140             0.0000000000
       141       141  DOPC      POLO           34.3510876197      -20.5362148691      -11.8842369470  HEAD      141             0.0000000000
       142       142  DOPC      POLO          -33.7563508191       -6.8559894935      -11.9541711208  HEAD      142             0.0000000000
       143       143  DOPC      POLO           12.0552277435       36.1368747109      -11.9625655776  HEAD      143             0.0000000000
       144       144  DOPC      POLO          -37.4784145454       13.8742376185      -12.0381327590  HEAD      144             0.0000000000
       145       145  DOPC      POLO           11.8197907346      -15.1291141760      -12.0398932672  HEAD      145             0.0000000000
       146       146  DOPC      POLO            9.2149016371      -32.3863897535      -11.9430742391  HEAD      146             0.0000000000
       147       147  DOPC      POLO          -22.5258844914      -28.1502794354      -12.1186698538  HEAD      147             0.0000000000
       148       148  DOPC      POLO           -7.5797060556        6.8637228398      -11.9639448874  HEAD      148             0.0000000000
       149       149  DOPC      POLO          -29.2836861155       -0.1449827943      -12.0434447553  HEAD      149             0.0000000000
       150       150  DOPC      POLO           31.7269727752       27.8470417323      -12.0915066009  HEAD      150             0.0000000000
       151       151  DOPE      POLO           34.5937879331        7.2960493371      -11.9772875203  HEAD      151             0.0000000000
       152       152  DOPE      POLO          -20.9213222331       -0.3052016678      -12.0046166503  HEAD      152             0.0000000000
       153       153  DOPE      POLO           13.6335519000       14.2815345417      -12.2310801296  HEAD      153             0.0000000000
       154       154  DOPE      POLO          -16.2994396908        6.3696531949      -12.0706081395  HEAD      154             0.0000000000
       155       155  DOPE      POLO            6.9484090225       29.0532945597      -12.0461824231  HEAD      155             0.0000000000
       156       156  DOPE      POLO           17.4737856236        6.9919023045      -12.0281484056  HEAD      156             0.0000000000
       157       157  DOPE      POLO           -8.1338438788       -7.2369952327      -11.9824323479  HEAD      157             0.0000000000
       158       158  DOPE      POLO          -20.4653205051       27.2010407255      -12.0984608336  HEAD      158             0.0000000000
       159       159  DOPE      POLO          -37.8227586117        0.2371114585      -12.0380990887  HEAD      159             0.0000000000
       160       160  DOPE      POLO           -7.9109197727       33.7438034570      -11.9853076206  HEAD      160             0.0000000000
       161       161  DOPE      POLO           -6.1874368757      -28.8951764481      -12.0638599782  HEAD      161             0.0000000000
       162       162  DOPE      POLO          -33.6042499777        6.8023542866      -11.9059341397  HEAD      162             0.0000000000
       163       163  DOPE      POLO           -4.5539913342      -14.5585006983      -11.9191336070  HEAD      163             0.0000000000
       164       164  DOPE      POLO            2.1112024302       21.5708754248      -11.9797938138  HEAD      164             0.0000000000
       165       165  DOPE      POLO          -24.9600610237        6.5079926067      -11.8636546528  HEAD      165             0.0000000000
       166       166  DOPE      POLO          -25.2086295735       -7.0479551591      -12.0485572164  HEAD      166             0.0000000000
       167       167  DOPE      POLO           37.9142619610      -27.6785179396      -12.0917008157  HEAD      167             0.0000000000
       168       168  DOPE      POLO            1.8333942014      -29.5104115781      -12.0656701601  HEAD      168             0.0000000000
       169       169  DOPE      POLO            8.4340642800       -7.6067904389      -11.8916034722  HEAD      169             0.0000000000
       170       170  DOPE      POLO          -20.5794248996       13.1522700998      -11.9445502653  HEAD      170             0.0000000000
       171       171  DOPE      POLO          -28.5609034253       27.3694186823      -11.9488382985  HEAD      171             0.0000000000
       172       172  DOPE      POLO          -38.2166921951      -13.5564034707      -11.9630587158  HEAD      172             0.0000000000
       173       173  DOPE      POLO           23.3843342275       28.2399578989      -12.1593370568  HEAD      173             0.0000000000
       174       174  DOPE      POLO          -24.5774107092       20.2713403561      -11.9781718942  HEAD      174             0.0000000000
       175       175  DOPE      POLO          -12.9761477945      -14.2745228966      -12.0357270878  HEAD      175             0.0000000000
       176       176  DOPE      POLO           16.7289871021       -7.4174356064      -12.0210572516  HEAD      176             0.0000000000
       177       177  DOPE      POLO           36.6054577239       34.7636984123      -11.8932176833  HEAD      177             0.0000000000
       178       178  DOPE      POLO          -32.7921552884       20.5031747503      -12.0375565638  HEAD      178             0.0000000000
       179       179  DOPE      POLO           26.2445427317      -20.2212318243      -11.9093551523  HEAD      179             0.0000000000
       180       180  DOPE      POLO           35.4124012966       20.6980584243      -12.0478541289  HEAD      180             0.0000000000
       181       181  23SM      POLO           -3.6950323939       -0.2520397372      -11.9327284781  HEAD      181             0.0000000000
       182       182  23SM      POLO           28.4598876186       35.2691805583      -11.9291601066  HEAD      182             0.0000000000
       183       183  23SM      POLO          -25.9736736049      -20.9984470766      -12.0524682970  HEAD      183             0.0000000000
       184       184  23SM      POLO          -21.3994291369      -13.8850708296      -11.9620504291  HEAD      184             0.0000000000
       185       185  23SM      POLO            6.7908975916      -22.2598739960      -12.0398676947  HEAD      185             0.0000000000
       186       186  23SM      POLO            1.0944009449        7.0279833548      -11.8723152995  HEAD      186             0.0000000000
       187       187  23SM      POLO          -11.1089201180      -35.7744783852      -11.8921334108  HEAD      187             0.0000000000
       188       188  23SM      POLO           25.9927911470        7.2028195054      -12.0374804254  HEAD      188             0.0000000000
       189       189  23SM      POLO            3.6679781599      -14.6922352012      -12.0378940352  HEAD      189             0.0000000000
       190       190  23SM      POLO           30.2893155412        0.5338243956      -11.9062876623  HEAD      190             0.0000000000
       191       191  23SM      POLO            4.4274573010      -38.1862333144      -12.0156102148  HEAD      191             0.0000000000
       192       192  23SM      POLO           21.4109316796        0.0706274992      -11.9496460868  HEAD      192             0.0000000000
       193       193  23SM      POLO            9.2805776554        6.9402276372      -11.9880877715  HEAD      193             0.0000000000
       194       194  23SM      POLO           22.2712734483      -13.1055831976      -11.9658859379  HEAD      194             0.0000000000
       195       195  23SM      POLO           14.9112674564       28.5725089250      -12.0041161241  HEAD      195             0.0000000000
       196       196  23SM      POLO           -1.3696429080      -21.9379882770      -12.0648324223  HEAD      196             0.0000000000
       197       197  23SM      POLO          -32.2321258652       34.4651201461      -11.8922345576  HEAD      197             0.0000000000
       198       198  23SM      POLO          -35.6426515610      -34.9903744831      -11.9484180667  HEAD      198             0.0000000000
       199       199  23SM      POLO           13.7527743592      -26.0343897880      -12.1188285631  HEAD      199             0.0000000000
       200       200  23SM      POLO           18.1453060518      -19.6283263435      -11.9719581744  HEAD      200             0.0000000000
