* GENERATED BY CHARMM-GUI (HTTP://WWW.CHARMM-GUI.ORG) V3.7 ON JUL, 11. 2024. JOB
* GENERATES ION CONFORMATION USING MONTE-CARLO SIMULATION
*  DATE:     7/11/24      0:36:11      CREATED BY USER: apache
*
        52  EXT
         1         1  SOD       SOD            33.8642132000      -19.9401290000       25.0120554000  IONS      1               1.0000000000
         2         2  SOD       SOD            27.2024157000       25.8779986000      -24.9107642000  IONS      2               1.0000000000
         3         3  SOD       SOD            32.5211685000      -19.6273390000       48.4588448000  IONS      3               1.0000000000
         4         4  SOD       SOD            35.9122793960       30.9787353906       49.9677871828  IONS      4               1.0000000000
         5         5  SOD       SOD            24.3082805000       -6.3760961500       47.9805154000  IONS      5               1.0000000000
         6         6  SOD       SOD           -11.7076918000      -12.6720762000      -35.3886690000  IONS      6               1.0000000000
         7         7  SOD       SOD           -22.1893695000      -26.2842579000      -30.3880223000  IONS      7               1.0000000000
         8         8  SOD       SOD            -1.7843558200       -6.5417817100       37.8047241000  IONS      8               1.0000000000
         9         9  SOD       SOD           -28.5839281000      -11.7566865000      -23.2040152000  IONS      9               1.0000000000
        10        10  SOD       SOD             9.1935887353      -31.2377459081       22.4158586026  IONS      10              1.0000000000
        11        11  SOD       SOD           -14.0741575000      -12.5282417000       43.9915918000  IONS      11              1.0000000000
        12        12  SOD       SOD           -32.9922129000       12.7760454000       41.0258003000  IONS      12              1.0000000000
        13        13  SOD       SOD           -13.0536845000       17.2741522000      -49.9572692000  IONS      13              1.0000000000
        14        14  SOD       SOD           -15.4604513000       -5.9049560900       38.6525330000  IONS      14              1.0000000000
        15        15  SOD       SOD            28.4209086000       12.0345106000       44.0025091000  IONS      15              1.0000000000
        16        16  SOD       SOD           -18.5379851000       17.5669365000       36.6284114000  IONS      16              1.0000000000
        17        17  SOD       SOD           -28.8758472000      -12.2910901000      -34.7153953000  IONS      17              1.0000000000
        18        18  SOD       SOD            21.1589351000        3.8681527000       44.4963201000  IONS      18              1.0000000000
        19        19  SOD       SOD            33.2018212000      -11.5533836000       46.4422665000  IONS      19              1.0000000000
        20        20  SOD       SOD             2.3572686600      -17.9909169000      -43.4321550000  IONS      20              1.0000000000
        21        21  SOD       SOD           -35.7933360000       33.0174923000      -36.9951145000  IONS      21              1.0000000000
        22        22  SOD       SOD            10.8101067347       15.4186134740       30.2754553692  IONS      22              1.0000000000
        23        23  SOD       SOD           -10.3636594000       23.0627528000      -33.8626099000  IONS      23              1.0000000000
        24        24  SOD       SOD           -34.5188847001        8.7160846892      -42.4079654900  IONS      24              1.0000000000
        25        25  SOD       SOD            -8.2102248800      -16.4637347000      -35.6264735000  IONS      25              1.0000000000
        26        26  SOD       SOD           -29.4415495000       34.8915674000       43.9975421000  IONS      26              1.0000000000
        27        27  CLA       CLA            21.7025102000       -1.7843819300      -35.3504535000  IONS      27             -1.0000000000
        28        28  CLA       CLA            11.1746327000       10.0834386000      -49.0640971000  IONS      28             -1.0000000000
        29        29  CLA       CLA           -33.3615932000        7.6413645000      -31.0635908000  IONS      29             -1.0000000000
        30        30  CLA       CLA            19.9015776000       -8.4453234400       31.5216585000  IONS      30             -1.0000000000
        31        31  CLA       CLA             7.7314269778       27.5752718963       49.3979504195  IONS      31             -1.0000000000
        32        32  CLA       CLA            10.1456815847      -10.0629842344       47.4595675340  IONS      32             -1.0000000000
        33        33  CLA       CLA             6.6354373648      -26.1960778355       31.8990888249  IONS      33             -1.0000000000
        34        34  CLA       CLA            24.3155846000       18.0797782000       39.3311809000  IONS      34             -1.0000000000
        35        35  CLA       CLA           -22.4917454000      -31.8781470000      -49.3274618000  IONS      35             -1.0000000000
        36        36  CLA       CLA           -11.2918802307      -32.3523520743       34.6928668000  IONS      36             -1.0000000000
        37        37  CLA       CLA           -13.8917922000      -15.6671531000       27.8483017000  IONS      37             -1.0000000000
        38        38  CLA       CLA            14.3187203018      -22.7739725936      -31.3897276606  IONS      38             -1.0000000000
        39        39  CLA       CLA            35.0607617000      -32.1049850000      -27.6768270000  IONS      39             -1.0000000000
        40        40  CLA       CLA            26.7399489209        2.3297759546       22.3618262692  IONS      40             -1.0000000000
        41        41  CLA       CLA            11.0422470000       34.9575255000      -25.9072485000  IONS      41             -1.0000000000
        42        42  CLA       CLA            13.4474795000       -7.1400977800       32.2265249000  IONS      42             -1.0000000000
        43        43  CLA       CLA           -29.2041206000      -30.7731565000      -33.7164360000  IONS      43             -1.0000000000
        44        44  CLA       CLA            -4.8502677100      -13.4030909000      -27.9622053000  IONS      44             -1.0000000000
        45        45  CLA       CLA            32.5680254000       26.9222011000      -31.1103000000  IONS      45             -1.0000000000
        46        46  CLA       CLA           -27.1704099000      -30.4887337000       48.1103537000  IONS      46             -1.0000000000
        47        47  CLA       CLA             2.2308159100      -30.0083069000      -35.2723206000  IONS      47             -1.0000000000
        48        48  CLA       CLA             6.7079329950        5.4401391581      -32.2957950968  IONS      48             -1.0000000000
        49        49  CLA       CLA           -18.4401323993       24.0249704931      -31.6408932802  IONS      49             -1.0000000000
        50        50  CLA       CLA             7.4430419200      -10.7573815000       37.1923284000  IONS      50             -1.0000000000
        51        51  CLA       CLA           -24.9500090349       -5.5329714425       30.9002233843  IONS      51             -1.0000000000
        52        52  CLA       CLA           -32.2700381000      -15.0167529000      -26.8321262000  IONS      52             -1.0000000000
