;;
;; Generated by CHARMM-GUI (http://www.charmm-gui.org) v1.7
;;
;; psf2itp_mol.py
;;
;; Correspondance:
;; jul316@lehigh.edu or wonpil@lehigh.edu
;;
;; GROMACS topology file for LIG
;;


[ moleculetype ]
; name	nrexcl
LIG	     3

[ atoms ]
; nr	type	resnr	residu	atom	cgnr	charge	mass
     1      SG311      1      LIG      S      1     -0.246    32.0600   ; qtot -0.246
     2      NG301      1      LIG     N1      2     -0.382    14.0070   ; qtot -0.628
     3      NG301      1      LIG     N2      3     -0.690    14.0070   ; qtot -1.318
     4      CG311      1      LIG     C1      4     -0.173    12.0110   ; qtot -1.491
     5      CG321      1      LIG     C2      5     -0.165    12.0110   ; qtot -1.656
     6      CG321      1      LIG     C3      6      0.044    12.0110   ; qtot -1.612
     7      CG321      1      LIG     C4      7      0.084    12.0110   ; qtot -1.528
     8      CG331      1      LIG     C5      8     -0.236    12.0110   ; qtot -1.764
     9     CG2R61      1      LIG     C6      9      0.229    12.0110   ; qtot -1.535
    10     CG2R61      1      LIG     C7     10      0.229    12.0110   ; qtot -1.306
    11      CG321      1      LIG     C8     11      0.040    12.0110   ; qtot -1.266
    12      CG321      1      LIG     C9     12      0.040    12.0110   ; qtot -1.226
    13     CG2R61      1      LIG    C10     13      0.046    12.0110   ; qtot -1.180
    14     CG2R61      1      LIG    C11     14      0.046    12.0110   ; qtot -1.134
    15     CG2R61      1      LIG    C12     15     -0.201    12.0110   ; qtot -1.335
    16     CG2R61      1      LIG    C13     16     -0.201    12.0110   ; qtot -1.536
    17      CG331      1      LIG    C14     17     -0.269    12.0110   ; qtot -1.805
    18      CG331      1      LIG    C15     18     -0.269    12.0110   ; qtot -2.074
    19     CG2R61      1      LIG    C16     19     -0.108    12.0110   ; qtot -2.182
    20     CG2R61      1      LIG    C17     20     -0.108    12.0110   ; qtot -2.290
    21     CG2R61      1      LIG    C18     21     -0.099    12.0110   ; qtot -2.389
    22     CG2R61      1      LIG    C19     22     -0.099    12.0110   ; qtot -2.488
    23     CG2R61      1      LIG    C20     23     -0.116    12.0110   ; qtot -2.604
    24     CG2R61      1      LIG    C21     24     -0.116    12.0110   ; qtot -2.720
    25       HGA1      1      LIG     H1     25      0.090     1.0080   ; qtot -2.630
    26       HGA2      1      LIG     H2     26      0.090     1.0080   ; qtot -2.540
    27       HGA2      1      LIG     H3     27      0.090     1.0080   ; qtot -2.450
    28       HGA2      1      LIG     H4     28      0.090     1.0080   ; qtot -2.360
    29       HGA2      1      LIG     H5     29      0.090     1.0080   ; qtot -2.270
    30       HGA2      1      LIG     H6     30      0.090     1.0080   ; qtot -2.180
    31       HGA2      1      LIG     H7     31      0.090     1.0080   ; qtot -2.090
    32       HGA3      1      LIG     H8     32      0.090     1.0080   ; qtot -2.000
    33       HGA3      1      LIG     H9     33      0.090     1.0080   ; qtot -1.910
    34       HGA3      1      LIG    H10     34      0.090     1.0080   ; qtot -1.820
    35       HGA2      1      LIG    H11     35      0.090     1.0080   ; qtot -1.730
    36       HGA2      1      LIG    H12     36      0.090     1.0080   ; qtot -1.640
    37       HGA2      1      LIG    H13     37      0.090     1.0080   ; qtot -1.550
    38       HGA2      1      LIG    H14     38      0.090     1.0080   ; qtot -1.460
    39      HGR61      1      LIG    H15     39      0.115     1.0080   ; qtot -1.345
    40      HGR61      1      LIG    H16     40      0.115     1.0080   ; qtot -1.230
    41       HGA3      1      LIG    H17     41      0.090     1.0080   ; qtot -1.140
    42       HGA3      1      LIG    H18     42      0.090     1.0080   ; qtot -1.050
    43       HGA3      1      LIG    H19     43      0.090     1.0080   ; qtot -0.960
    44       HGA3      1      LIG    H20     44      0.090     1.0080   ; qtot -0.870
    45       HGA3      1      LIG    H21     45      0.090     1.0080   ; qtot -0.780
    46       HGA3      1      LIG    H22     46      0.090     1.0080   ; qtot -0.690
    47      HGR61      1      LIG    H23     47      0.115     1.0080   ; qtot -0.575
    48      HGR61      1      LIG    H24     48      0.115     1.0080   ; qtot -0.460
    49      HGR61      1      LIG    H25     49      0.115     1.0080   ; qtot -0.345
    50      HGR61      1      LIG    H26     50      0.115     1.0080   ; qtot -0.230
    51      HGR61      1      LIG    H27     51      0.115     1.0080   ; qtot -0.115
    52      HGR61      1      LIG    H28     52      0.115     1.0080   ; qtot -0.000

[ bonds ]
; ai	aj	funct	b0	Kb
    1    13     1
    1    14     1
    2     6     1
    2     9     1
    2    10     1
    3     7     1
    3    11     1
    3    12     1
    4     5     1
    4     6     1
    4     8     1
    4    25     1
    5     7     1
    5    26     1
    5    27     1
    6    28     1
    6    29     1
    7    30     1
    7    31     1
    8    32     1
    8    33     1
    8    34     1
    9    13     1
    9    15     1
   10    14     1
   10    16     1
   11    17     1
   11    35     1
   11    36     1
   12    18     1
   12    37     1
   12    38     1
   13    19     1
   14    20     1
   15    21     1
   15    39     1
   16    22     1
   16    40     1
   17    41     1
   17    42     1
   17    43     1
   18    44     1
   18    45     1
   18    46     1
   19    23     1
   19    47     1
   20    24     1
   20    48     1
   21    23     1
   21    49     1
   22    24     1
   22    50     1
   23    51     1
   24    52     1

[ pairs ]
; ai	aj	funct	c6	c12
    1     2     1 
    1    15     1 
    1    16     1 
    1    23     1 
    1    24     1 
    1    47     1 
    1    48     1 
    2     5     1 
    2     8     1 
    2    19     1 
    2    20     1 
    2    21     1 
    2    22     1 
    2    25     1 
    2    39     1 
    2    40     1 
    3     4     1 
    3    26     1 
    3    27     1 
    3    41     1 
    3    42     1 
    3    43     1 
    3    44     1 
    3    45     1 
    3    46     1 
    4     9     1 
    4    10     1 
    4    30     1 
    4    31     1 
    5    11     1 
    5    12     1 
    5    28     1 
    5    29     1 
    5    32     1 
    5    33     1 
    5    34     1 
    6     7     1 
    6    13     1 
    6    14     1 
    6    15     1 
    6    16     1 
    6    26     1 
    6    27     1 
    6    32     1 
    6    33     1 
    6    34     1 
    7     8     1 
    7    17     1 
    7    18     1 
    7    25     1 
    7    35     1 
    7    36     1 
    7    37     1 
    7    38     1 
    8    26     1 
    8    27     1 
    8    28     1 
    8    29     1 
    9    14     1 
    9    16     1 
    9    23     1 
    9    28     1 
    9    29     1 
    9    47     1 
    9    49     1 
   10    13     1 
   10    15     1 
   10    24     1 
   10    28     1 
   10    29     1 
   10    48     1 
   10    50     1 
   11    18     1 
   11    30     1 
   11    31     1 
   11    37     1 
   11    38     1 
   12    17     1 
   12    30     1 
   12    31     1 
   12    35     1 
   12    36     1 
   13    20     1 
   13    21     1 
   13    39     1 
   13    51     1 
   14    19     1 
   14    22     1 
   14    40     1 
   14    52     1 
   15    19     1 
   15    51     1 
   16    20     1 
   16    52     1 
   19    49     1 
   20    50     1 
   21    47     1 
   22    48     1 
   23    39     1 
   24    40     1 
   25    26     1 
   25    27     1 
   25    28     1 
   25    29     1 
   25    32     1 
   25    33     1 
   25    34     1 
   26    30     1 
   26    31     1 
   27    30     1 
   27    31     1 
   35    41     1 
   35    42     1 
   35    43     1 
   36    41     1 
   36    42     1 
   36    43     1 
   37    44     1 
   37    45     1 
   37    46     1 
   38    44     1 
   38    45     1 
   38    46     1 
   39    49     1 
   40    50     1 
   47    51     1 
   48    52     1 
   49    51     1 
   50    52     1 

[ angles ] 
; ai	aj	ak	funct	th0	cth	S0	Kub
   13     1    14     5
    6     2     9     5
    6     2    10     5
    9     2    10     5
    7     3    11     5
    7     3    12     5
   11     3    12     5
    5     4     6     5
    5     4     8     5
    5     4    25     5
    6     4     8     5
    6     4    25     5
    8     4    25     5
    4     5     7     5
    4     5    26     5
    4     5    27     5
    7     5    26     5
    7     5    27     5
   26     5    27     5
    2     6     4     5
    2     6    28     5
    2     6    29     5
    4     6    28     5
    4     6    29     5
   28     6    29     5
    3     7     5     5
    3     7    30     5
    3     7    31     5
    5     7    30     5
    5     7    31     5
   30     7    31     5
    4     8    32     5
    4     8    33     5
    4     8    34     5
   32     8    33     5
   32     8    34     5
   33     8    34     5
    2     9    13     5
    2     9    15     5
   13     9    15     5
    2    10    14     5
    2    10    16     5
   14    10    16     5
    3    11    17     5
    3    11    35     5
    3    11    36     5
   17    11    35     5
   17    11    36     5
   35    11    36     5
    3    12    18     5
    3    12    37     5
    3    12    38     5
   18    12    37     5
   18    12    38     5
   37    12    38     5
    1    13     9     5
    1    13    19     5
    9    13    19     5
    1    14    10     5
    1    14    20     5
   10    14    20     5
    9    15    21     5
    9    15    39     5
   21    15    39     5
   10    16    22     5
   10    16    40     5
   22    16    40     5
   11    17    41     5
   11    17    42     5
   11    17    43     5
   41    17    42     5
   41    17    43     5
   42    17    43     5
   12    18    44     5
   12    18    45     5
   12    18    46     5
   44    18    45     5
   44    18    46     5
   45    18    46     5
   13    19    23     5
   13    19    47     5
   23    19    47     5
   14    20    24     5
   14    20    48     5
   24    20    48     5
   15    21    23     5
   15    21    49     5
   23    21    49     5
   16    22    24     5
   16    22    50     5
   24    22    50     5
   19    23    21     5
   19    23    51     5
   21    23    51     5
   20    24    22     5
   20    24    52     5
   22    24    52     5

[ dihedrals ]
; ai	aj	ak	al	funct	phi0	cp	mult
   14     1    13    19     9
   13     1    14    20     9
    9     2     6    28     9
    9     2     6    29     9
   10     2     6    28     9
   10     2     6    29     9
    6     2     9    13     9
    6     2     9    15     9
   10     2     9    13     9
   10     2     9    15     9
    6     2    10    14     9
    6     2    10    16     9
    9     2    10    14     9
    9     2    10    16     9
   11     3     7    30     9
   11     3     7    31     9
   12     3     7    30     9
   12     3     7    31     9
    7     3    11    17     9
    7     3    11    35     9
    7     3    11    36     9
   12     3    11    17     9
   12     3    11    35     9
   12     3    11    36     9
    7     3    12    18     9
    7     3    12    37     9
    7     3    12    38     9
   11     3    12    18     9
   11     3    12    37     9
   11     3    12    38     9
    6     4     5     7     9
    6     4     5    26     9
    6     4     5    27     9
    8     4     5    26     9
    8     4     5    27     9
   25     4     5    26     9
   25     4     5    27     9
    5     4     6    28     9
    5     4     6    29     9
    8     4     6    28     9
    8     4     6    29     9
   25     4     6    28     9
   25     4     6    29     9
    5     4     8    32     9
    5     4     8    33     9
    5     4     8    34     9
    6     4     8    32     9
    6     4     8    33     9
    6     4     8    34     9
   25     4     8    32     9
   25     4     8    33     9
   25     4     8    34     9
    7     5     4     8     9
    7     5     4    25     9
    4     5     7    30     9
    4     5     7    31     9
   26     5     7    30     9
   26     5     7    31     9
   27     5     7    30     9
   27     5     7    31     9
    4     6     2     9     9
    4     6     2    10     9
    2     6     4     5     9
    2     6     4     8     9
    2     6     4    25     9
    5     7     3    11     9
    5     7     3    12     9
    3     7     5     4     9
    3     7     5    26     9
    3     7     5    27     9
    2     9    13    19     9
   15     9    13    19     9
    2     9    15    21     9
    2     9    15    39     9
   13     9    15    21     9
   13     9    15    39     9
    2    10    14    20     9
   16    10    14    20     9
    2    10    16    22     9
    2    10    16    40     9
   14    10    16    22     9
   14    10    16    40     9
    3    11    17    41     9
    3    11    17    42     9
    3    11    17    43     9
   35    11    17    41     9
   35    11    17    42     9
   35    11    17    43     9
   36    11    17    41     9
   36    11    17    42     9
   36    11    17    43     9
    3    12    18    44     9
    3    12    18    45     9
    3    12    18    46     9
   37    12    18    44     9
   37    12    18    45     9
   37    12    18    46     9
   38    12    18    44     9
   38    12    18    45     9
   38    12    18    46     9
    9    13     1    14     9
    1    13     9     2     9
    1    13     9    15     9
    1    13    19    23     9
    1    13    19    47     9
    9    13    19    23     9
    9    13    19    47     9
   10    14     1    13     9
    1    14    10     2     9
    1    14    10    16     9
    1    14    20    24     9
    1    14    20    48     9
   10    14    20    24     9
   10    14    20    48     9
    9    15    21    23     9
    9    15    21    49     9
   39    15    21    49     9
   10    16    22    24     9
   10    16    22    50     9
   40    16    22    50     9
   13    19    23    21     9
   13    19    23    51     9
   47    19    23    51     9
   14    20    24    22     9
   14    20    24    52     9
   48    20    24    52     9
   23    21    15    39     9
   15    21    23    19     9
   15    21    23    51     9
   49    21    23    51     9
   24    22    16    40     9
   16    22    24    20     9
   16    22    24    52     9
   50    22    24    52     9
   21    23    19    47     9
   19    23    21    49     9
   22    24    20    48     9
   20    24    22    50     9
